      -----------------------------------------------------------      
     |                   =====================                   |     
     |                           x T B                           |     
     |                   =====================                   |     
     |                         S. Grimme                         |     
     |          Mulliken Center for Theoretical Chemistry        |     
     |                    University of Bonn                     |     
      -----------------------------------------------------------      

   * xtb version 6.4.1 (afa7bdf) compiled by 'ehlert@majestix' on 2021-06-10

   xtb is free software: you can redistribute it and/or modify it under
   the terms of the GNU Lesser General Public License as published by
   the Free Software Foundation, either version 3 of the License, or
   (at your option) any later version.
   
   xtb is distributed in the hope that it will be useful,
   but WITHOUT ANY WARRANTY; without even the implied warranty of
   MERCHANTABILITY or FITNESS FOR A PARTICULAR PURPOSE.  See the
   GNU Lesser General Public License for more details.
   
   Cite this work as:
   * C. Bannwarth, E. Caldeweyher, S. Ehlert, A. Hansen, P. Pracht,
     J. Seibert, S. Spicher, S. Grimme, WIREs Comput. Mol. Sci., 2020, 11,
     e01493. DOI: 10.1002/wcms.1493
   
   for GFN2-xTB:
   * C. Bannwarth, S. Ehlert and S. Grimme., J. Chem. Theory Comput., 2019,
     15, 1652-1671. DOI: 10.1021/acs.jctc.8b01176
   for GFN1-xTB:
   * S. Grimme, C. Bannwarth, P. Shushkov, J. Chem. Theory Comput., 2017,
     13, 1989-2009. DOI: 10.1021/acs.jctc.7b00118
   for GFN0-xTB:
   * P. Pracht, E. Caldeweyher, S. Ehlert, S. Grimme, ChemRxiv, 2019, preprint.
     DOI: 10.26434/chemrxiv.8326202.v1
   for GFN-FF:
   * S. Spicher and S. Grimme, Angew. Chem. Int. Ed., 2020, 59, 15665-15673.
     DOI: 10.1002/anie.202004239
   
   for DFT-D4:
   * E. Caldeweyher, C. Bannwarth and S. Grimme, J. Chem. Phys., 2017,
     147, 034112. DOI: 10.1063/1.4993215
   * E. Caldeweyher, S. Ehlert, A. Hansen, H. Neugebauer, S. Spicher,
     C. Bannwarth and S. Grimme, J. Chem. Phys., 2019, 150, 154122.
     DOI: 10.1063/1.5090222
   * E. Caldeweyher, J.-M. Mewes, S. Ehlert and S. Grimme, Phys. Chem. Chem. Phys.
     2020, 22, 8499-8512. DOI: 10.1039/D0CP00502A
   
   for sTDA-xTB:
   * S. Grimme and C. Bannwarth, J. Chem. Phys., 2016, 145, 054103.
     DOI: 10.1063/1.4959605
   
   in the mass-spec context:
   * V. Asgeirsson, C. Bauer and S. Grimme, Chem. Sci., 2017, 8, 4879.
     DOI: 10.1039/c7sc00601b
   * J. Koopman and S. Grimme, ACS Omega 2019, 4, 12, 15120-15133.
     DOI: 10.1021/acsomega.9b02011
   
   for metadynamics refer to:
   * S. Grimme, J. Chem. Theory Comput., 2019, 155, 2847-2862
     DOI: 10.1021/acs.jctc.9b00143
   
   for SPH calculations refer to:
   * S. Spicher and S. Grimme, J. Chem. Theory Comput., 2021, 17, 1701-1714
     DOI: 10.1021/acs.jctc.0c01306
   
   with help from (in alphabetical order)
   P. Atkinson, C. Bannwarth, F. Bohle, G. Brandenburg, E. Caldeweyher
   M. Checinski, S. Dohm, S. Ehlert, S. Ehrlich, I. Gerasimov, J. Koopman
   C. Lavigne, S. Lehtola, F. März, M. Müller, F. Musil, H. Neugebauer
   J. Pisarek, C. Plett, P. Pracht, J. Seibert, P. Shushkov, S. Spicher
   M. Stahn, M. Steiner, T. Strunk, J. Stückrath, T. Rose, and J. Unsleber
   
 * started run on 2021/11/15 at 09:36:24.236     

           -------------------------------------------------
          |                Calculation Setup                |
           -------------------------------------------------

          program call               : xtb 40_3-methoxy-L-tyrosine.xyz --gfn2 --chrg 0 --uhf 0 --alpb water --ohess -P 1
          coordinate file            : 40_3-methoxy-L-tyrosine.xyz
          omp threads                :                     1
          number of atoms            :                    28
          number of electrons        :                    82
          charge                     :                     0
          spin                       :                   0.0
          first test random number   :      0.76423896940439

   ID    Z sym.   atoms
    1    8 O      1-3, 24
    2    7 N      4
    3    6 C      5-13, 25
    4    1 H      14-23, 26-28

           -------------------------------------------------
          |                 G F N 2 - x T B                 |
           -------------------------------------------------

        Reference                      10.1021/acs.jctc.8b01176
      * Hamiltonian:
        H0-scaling (s, p, d)           1.850000    2.230000    2.230000
        zeta-weighting                 0.500000
      * Dispersion:
        s8                             2.700000
        a1                             0.520000
        a2                             5.000000
        s9                             5.000000
      * Repulsion:
        kExp                           1.500000    1.000000
        rExp                           1.000000
      * Coulomb:
        alpha                          2.000000
        third order                    shell-resolved
        anisotropic                    true
        a3                             3.000000
        a5                             4.000000
        cn-shift                       1.200000
        cn-exp                         4.000000
        max-rad                        5.000000

      * Solvation model:               ALPB
        Solvent                        water
        Parameter file                 internal GFN2-xTB/ALPB
        Dielectric constant                8.0200E+01
        Reference state                gsolv [1 M gas/solution]
        Free energy shift                  1.0808E-03 Eh       6.7819E-01 kcal/mol
        Temperature                        2.9815E+02 K
        Density                            1.0000E+00 kg/L
        Solvent mass                       1.8000E+01 g/mol
        Interaction kernel             P16
        Born radius scaling (c1)           1.4744E+00
        Born radii integrator          GBOBC
        Born offset                        0.0000E+00 a0       0.0000E+00 AA
        H-bond correction              true
        Ion screening                  false
        Surface tension                    1.0000E-05 Eh       1.5569E+01 dyn/cm
        Grid points                               230 per atom

          ...................................................
          :                      SETUP                      :
          :.................................................:
          :  # basis functions                  73          :
          :  # atomic orbitals                  73          :
          :  # shells                           43          :
          :  # electrons                        82          :
          :  max. iterations                   250          :
          :  Hamiltonian                  GFN2-xTB          :
          :  restarted?                      false          :
          :  GBSA solvation                   true          :
          :  PC potential                    false          :
          :  electronic temp.          300.0000000     K    :
          :  accuracy                    1.0000000          :
          :  -> integral cutoff          0.2500000E+02      :
          :  -> integral neglect         0.1000000E-07      :
          :  -> SCF convergence          0.1000000E-05 Eh   :
          :  -> wf. convergence          0.1000000E-03 e    :
          :  Broyden damping             0.4000000          :
          ...................................................

 iter      E             dE          RMSdq      gap      omega  full diag
   1    -47.6609784 -0.476610E+02  0.507E+00    3.79       0.0  T
   2    -47.7792113 -0.118233E+00  0.256E+00    3.87       1.0  T
   3    -47.7829357 -0.372437E-02  0.109E+00    3.94       1.0  T
   4    -47.7841615 -0.122580E-02  0.339E-01    4.03       1.0  T
   5    -47.7856145 -0.145304E-02  0.112E-01    4.00       1.0  T
   6    -47.7856537 -0.391464E-04  0.653E-02    4.01       1.0  T
   7    -47.7856753 -0.216455E-04  0.163E-02    4.01       1.2  T
   8    -47.7856769 -0.161198E-05  0.842E-03    4.01       2.2  T
   9    -47.7856772 -0.296981E-06  0.427E-03    4.01       4.4  T
  10    -47.7856773 -0.988734E-07  0.136E-03    4.01      13.9  T
  11    -47.7856773 -0.997359E-08  0.761E-04    4.01      24.8  T
  12    -47.7856774 -0.259740E-08  0.298E-04    4.01      63.5  T

   *** convergence criteria satisfied after 12 iterations ***

         #    Occupation            Energy/Eh            Energy/eV
      -------------------------------------------------------------
         1        2.0000           -0.7257745             -19.7493
       ...           ...                  ...                  ...
        35        2.0000           -0.4440255             -12.0825
        36        2.0000           -0.4300223             -11.7015
        37        2.0000           -0.4138294             -11.2609
        38        2.0000           -0.4034096             -10.9773
        39        2.0000           -0.3979671             -10.8292
        40        2.0000           -0.3831770             -10.4268
        41        2.0000           -0.3731159             -10.1530 (HOMO)
        42                         -0.2257512              -6.1430 (LUMO)
        43                         -0.2203240              -5.9953
        44                         -0.1934029              -5.2628
        45                         -0.0979367              -2.6650
        46                         -0.0535785              -1.4579
       ...                                ...                  ...
        73                          0.6395301              17.4025
      -------------------------------------------------------------
                  HL-Gap            0.1473646 Eh            4.0100 eV
             Fermi-level           -0.2994336 Eh           -8.1480 eV

 SCC (total)                   0 d,  0 h,  0 min,  0.024 sec
 SCC setup                      ...        0 min,  0.001 sec (  3.081%)
 Dispersion                     ...        0 min,  0.000 sec (  1.230%)
 classical contributions        ...        0 min,  0.000 sec (  0.164%)
 integral evaluation            ...        0 min,  0.003 sec ( 14.494%)
 iterations                     ...        0 min,  0.012 sec ( 49.402%)
 molecular gradient             ...        0 min,  0.007 sec ( 30.504%)
 printout                       ...        0 min,  0.000 sec (  1.019%)

         :::::::::::::::::::::::::::::::::::::::::::::::::::::
         ::                     SUMMARY                     ::
         :::::::::::::::::::::::::::::::::::::::::::::::::::::
         :: total energy             -47.251481758545 Eh    ::
         :: total w/o Gsasa/hb       -47.241437658038 Eh    ::
         :: gradient norm              0.046719782629 Eh/a0 ::
         :: HOMO-LUMO gap              4.009996079201 eV    ::
         ::.................................................::
         :: SCC energy               -47.785677352330 Eh    ::
         :: -> isotropic ES            0.213507934995 Eh    ::
         :: -> anisotropic ES         -0.010528659356 Eh    ::
         :: -> anisotropic XC          0.010198143566 Eh    ::
         :: -> dispersion             -0.024273043333 Eh    ::
         :: -> Gsolv                  -0.075198917191 Eh    ::
         ::    -> Gelec               -0.065154816683 Eh    ::
         ::    -> Gsasa                0.004530240412 Eh    ::
         ::    -> Ghb                 -0.015655100617 Eh    ::
         ::    -> Gshift               0.001080759698 Eh    ::
         :: repulsion energy           0.534047575253 Eh    ::
         :: add. restraining           0.000000000000 Eh    ::
         :: total charge               0.000000000000 e     ::
         :::::::::::::::::::::::::::::::::::::::::::::::::::::

      ----------------------------------------------------------- 
     |                   =====================                   |
     |                        A N C O P T                        |
     |                   =====================                   |
     |               Approximate Normal Coordinate               |
     |                Rational Function Optimizer                |
      ----------------------------------------------------------- 

          ...................................................
          :                      SETUP                      :
          :.................................................:
          :   optimization level            normal          :
          :   max. optcycles                   200          :
          :   ANC micro-cycles                  20          :
          :   degrees of freedom                78          :
          :.................................................:
          :   RF solver                   davidson          :
          :   write xtbopt.log                true          :
          :   linear?                        false          :
          :   energy convergence         0.5000000E-05 Eh   :
          :   grad. convergence          0.1000000E-02 Eh/α :
          :   maximium RF displ.         1.0000000          :
          :   Hlow (freq-cutoff)         0.1000000E-01      :
          :   Hmax (freq-cutoff)         5.0000000          :
          :   S6 in model hess.         20.0000000          :
          ...................................................

generating ANC from model Hessian ...
Using Lindh-Hessian (1995)
 Shifting diagonal of input Hessian by   9.229936098304921E-003
 Lowest  eigenvalues of input Hessian
    0.000000    0.000000    0.000000    0.000000    0.000000    0.000000
    0.010000    0.010414    0.010712    0.012465    0.014267    0.014788
    0.016234    0.020391    0.021851    0.023273    0.024261    0.026352
 Highest eigenvalues
    1.663705    1.761331    1.882748    2.015985    2.113477    2.311428
 

........................................................................
.............................. CYCLE    1 ..............................
........................................................................
   1    -47.7856774 -0.477857E+02  0.108E-04    4.01       0.0  T
   2    -47.7856774 -0.396270E-10  0.721E-05    4.01     262.0  T
   3    -47.7856774 -0.770228E-11  0.416E-05    4.01     454.7  T
     SCC iter.                  ...        0 min,  0.004 sec
     gradient                   ...        0 min,  0.007 sec
 * total energy  :   -47.2514818 Eh     change       -0.7978400E-09 Eh
   gradient norm :     0.0467198 Eh/α   predicted     0.0000000E+00 (-100.00%)
   displ. norm   :     0.1643191 α      lambda       -0.3454602E-02
   maximum displ.:     0.0553804 α      in ANC's #8, #22, #17, ...

........................................................................
.............................. CYCLE    2 ..............................
........................................................................
   1    -47.8015695 -0.478016E+02  0.135E-01    4.05       0.0  T
   2    -47.8016112 -0.417263E-04  0.785E-02    4.05       1.0  T
   3    -47.8016096  0.157916E-05  0.337E-02    4.05       1.0  T
   4    -47.8016174 -0.778290E-05  0.622E-03    4.05       3.0  T
   5    -47.8016179 -0.427922E-06  0.304E-03    4.05       6.2  T
   6    -47.8016179 -0.349269E-07  0.151E-03    4.05      12.5  T
   7    -47.8016179 -0.935056E-08  0.546E-04    4.05      34.6  T
   8    -47.8016179 -0.148576E-08  0.278E-04    4.05      68.0  T
     SCC iter.                  ...        0 min,  0.008 sec
     gradient                   ...        0 min,  0.007 sec
 * total energy  :   -47.2537238 Eh     change       -0.2242051E-02 Eh
   gradient norm :     0.0222613 Eh/α   predicted    -0.1774072E-02 ( -20.87%)
   displ. norm   :     0.1812040 α      lambda       -0.1603101E-02
   maximum displ.:     0.0899896 α      in ANC's #17, #8, #10, ...

........................................................................
.............................. CYCLE    3 ..............................
........................................................................
   1    -47.8109049 -0.478109E+02  0.114E-01    4.06       0.0  T
   2    -47.8109411 -0.361507E-04  0.666E-02    4.07       1.0  T
   3    -47.8109405  0.545692E-06  0.311E-02    4.07       1.0  T
   4    -47.8109462 -0.570272E-05  0.628E-03    4.07       3.0  T
   5    -47.8109467 -0.477459E-06  0.267E-03    4.07       7.1  T
   6    -47.8109467 -0.282115E-07  0.126E-03    4.07      15.0  T
   7    -47.8109467 -0.576595E-08  0.538E-04    4.07      35.1  T
   8    -47.8109467 -0.174589E-08  0.273E-04    4.07      69.1  T
     SCC iter.                  ...        0 min,  0.008 sec
     gradient                   ...        0 min,  0.007 sec
 * total energy  :   -47.2540966 Eh     change       -0.3727946E-03 Eh
   gradient norm :     0.0155817 Eh/α   predicted    -0.8278785E-03 ( 122.07%)
   displ. norm   :     0.0919999 α      lambda       -0.8773901E-03
   maximum displ.:     0.0322836 α      in ANC's #8, #25, #3, ...

........................................................................
.............................. CYCLE    4 ..............................
........................................................................
   1    -47.8100950 -0.478101E+02  0.698E-02    4.06       0.0  T
   2    -47.8100997 -0.473328E-05  0.414E-02    4.06       1.0  T
   3    -47.8100989  0.806235E-06  0.106E-02    4.06       1.8  T
   4    -47.8101002 -0.124609E-05  0.284E-03    4.06       6.7  T
   5    -47.8101003 -0.106164E-06  0.108E-03    4.06      17.5  T
   6    -47.8101003 -0.443647E-08  0.462E-04    4.06      40.9  T
   7    -47.8101003 -0.284359E-09  0.140E-04    4.06     134.6  T
     SCC iter.                  ...        0 min,  0.007 sec
     gradient                   ...        0 min,  0.007 sec
 * total energy  :   -47.2545298 Eh     change       -0.4332400E-03 Eh
   gradient norm :     0.0074420 Eh/α   predicted    -0.4424106E-03 (   2.12%)
   displ. norm   :     0.0521862 α      lambda       -0.1402278E-03
   maximum displ.:     0.0215330 α      in ANC's #11, #4, #1, ...

........................................................................
.............................. CYCLE    5 ..............................
........................................................................
   1    -47.8068699 -0.478069E+02  0.327E-02    4.05       0.0  T
   2    -47.8068720 -0.207413E-05  0.188E-02    4.05       1.0  T
   3    -47.8068720  0.628419E-07  0.657E-03    4.05       2.9  T
   4    -47.8068723 -0.307369E-06  0.126E-03    4.05      15.0  T
   5    -47.8068723 -0.102052E-07  0.621E-04    4.05      30.4  T
   6    -47.8068723 -0.214393E-08  0.345E-04    4.05      54.7  T
     SCC iter.                  ...        0 min,  0.006 sec
     gradient                   ...        0 min,  0.007 sec
 * total energy  :   -47.2546258 Eh     change       -0.9597986E-04 Eh
   gradient norm :     0.0033276 Eh/α   predicted    -0.7033549E-04 ( -26.72%)
   displ. norm   :     0.0879393 α      lambda       -0.8324195E-04
   maximum displ.:     0.0372369 α      in ANC's #1, #3, #4, ...

........................................................................
.............................. CYCLE    6 ..............................
........................................................................
   1    -47.8054188 -0.478054E+02  0.393E-02    4.05       0.0  T
   2    -47.8054216 -0.277544E-05  0.224E-02    4.05       1.0  T
   3    -47.8054217 -0.972054E-07  0.556E-03    4.05       3.4  T
   4    -47.8054218 -0.125018E-06  0.160E-03    4.05      11.8  T
   5    -47.8054218 -0.243144E-07  0.648E-04    4.05      29.2  T
   6    -47.8054218 -0.972008E-09  0.355E-04    4.05      53.3  T
     SCC iter.                  ...        0 min,  0.006 sec
     gradient                   ...        0 min,  0.007 sec
 * total energy  :   -47.2546791 Eh     change       -0.5329789E-04 Eh
   gradient norm :     0.0021282 Eh/α   predicted    -0.4196067E-04 ( -21.27%)
   displ. norm   :     0.0674067 α      lambda       -0.2741949E-04
   maximum displ.:     0.0352563 α      in ANC's #1, #3, #2, ...

........................................................................
.............................. CYCLE    7 ..............................
........................................................................
   1    -47.8054611 -0.478055E+02  0.240E-02    4.05       0.0  T
   2    -47.8054618 -0.692115E-06  0.138E-02    4.05       1.4  T
   3    -47.8054618 -0.374503E-07  0.238E-03    4.05       7.9  T
   4    -47.8054618 -0.152626E-07  0.941E-04    4.05      20.1  T
   5    -47.8054618 -0.121326E-07  0.345E-04    4.05      54.7  T
     SCC iter.                  ...        0 min,  0.005 sec
     gradient                   ...        0 min,  0.007 sec
 * total energy  :   -47.2547000 Eh     change       -0.2089762E-04 Eh
   gradient norm :     0.0017242 Eh/α   predicted    -0.1380604E-04 ( -33.93%)
   displ. norm   :     0.1295158 α      lambda       -0.2759607E-04
   maximum displ.:     0.0744283 α      in ANC's #1, #3, #2, ...

........................................................................
.............................. CYCLE    8 ..............................
........................................................................
   1    -47.8061553 -0.478062E+02  0.401E-02    4.05       0.0  T
   2    -47.8061561 -0.868241E-06  0.233E-02    4.05       1.0  T
   3    -47.8061560  0.168872E-06  0.453E-03    4.05       4.2  T
   4    -47.8061562 -0.290124E-06  0.144E-03    4.05      13.1  T
   5    -47.8061563 -0.248615E-07  0.471E-04    4.05      40.1  T
   6    -47.8061563 -0.329166E-09  0.230E-04    4.05      82.0  T
     SCC iter.                  ...        0 min,  0.006 sec
     gradient                   ...        0 min,  0.007 sec
 * total energy  :   -47.2547283 Eh     change       -0.2828953E-04 Eh
   gradient norm :     0.0020047 Eh/α   predicted    -0.1391457E-04 ( -50.81%)
   displ. norm   :     0.0721578 α      lambda       -0.1971340E-04
   maximum displ.:     0.0452908 α      in ANC's #1, #2, #3, ...

........................................................................
.............................. CYCLE    9 ..............................
........................................................................
   1    -47.8063379 -0.478063E+02  0.199E-02    4.06       0.0  T
   2    -47.8063380 -0.109318E-06  0.116E-02    4.06       1.6  T
   3    -47.8063379  0.697541E-07  0.238E-03    4.06       8.0  T
   4    -47.8063380 -0.103391E-06  0.496E-04    4.06      38.1  T
   5    -47.8063380 -0.132454E-08  0.258E-04    4.06      73.3  T
     SCC iter.                  ...        0 min,  0.006 sec
     gradient                   ...        0 min,  0.009 sec
 * total energy  :   -47.2547461 Eh     change       -0.1775951E-04 Eh
   gradient norm :     0.0018515 Eh/α   predicted    -0.9910026E-05 ( -44.20%)
   displ. norm   :     0.2176808 α      lambda       -0.3870734E-04
   maximum displ.:     0.1368853 α      in ANC's #1, #2, #3, ...

........................................................................
.............................. CYCLE   10 ..............................
........................................................................
   1    -47.8064517 -0.478065E+02  0.576E-02    4.06       0.0  T
   2    -47.8064530 -0.131239E-05  0.336E-02    4.06       1.0  T
   3    -47.8064527  0.282357E-06  0.571E-03    4.06       3.3  T
   4    -47.8064533 -0.537671E-06  0.171E-03    4.06      11.0  T
   5    -47.8064533 -0.236713E-07  0.748E-04    4.06      25.3  T
   6    -47.8064533 -0.195723E-08  0.342E-04    4.06      55.3  T
     SCC iter.                  ...        0 min,  0.009 sec
     gradient                   ...        0 min,  0.007 sec
 * total energy  :   -47.2547871 Eh     change       -0.4100190E-04 Eh
   gradient norm :     0.0021503 Eh/α   predicted    -0.1976323E-04 ( -51.80%)
   displ. norm   :     0.0994279 α      lambda       -0.1843441E-04
   maximum displ.:     0.0671077 α      in ANC's #1, #2, #3, ...

........................................................................
.............................. CYCLE   11 ..............................
........................................................................
   1    -47.8063957 -0.478064E+02  0.260E-02    4.06       0.0  T
   2    -47.8063958 -0.118105E-06  0.151E-02    4.06       1.3  T
   3    -47.8063958 -0.165756E-07  0.121E-03    4.06      15.6  T
   4    -47.8063959 -0.181495E-07  0.562E-04    4.06      33.6  T
   5    -47.8063959 -0.181425E-08  0.254E-04    4.06      74.4  T
     SCC iter.                  ...        0 min,  0.007 sec
     gradient                   ...        0 min,  0.008 sec
 * total energy  :   -47.2548029 Eh     change       -0.1586920E-04 Eh
   gradient norm :     0.0019446 Eh/α   predicted    -0.9310011E-05 ( -41.33%)
   displ. norm   :     0.1482631 α      lambda       -0.1976909E-04
   maximum displ.:     0.1070395 α      in ANC's #1, #2, #3, ...

........................................................................
.............................. CYCLE   12 ..............................
........................................................................
   1    -47.8065810 -0.478066E+02  0.374E-02    4.05       0.0  T
   2    -47.8065813 -0.368621E-06  0.217E-02    4.05       1.0  T
   3    -47.8065813  0.930174E-08  0.260E-03    4.05       7.3  T
   4    -47.8065814 -0.977653E-07  0.987E-04    4.05      19.2  T
   5    -47.8065814 -0.576661E-08  0.500E-04    4.05      37.8  T
     SCC iter.                  ...        0 min,  0.008 sec
     gradient                   ...        0 min,  0.007 sec
 * total energy  :   -47.2548238 Eh     change       -0.2087087E-04 Eh
   gradient norm :     0.0010024 Eh/α   predicted    -0.9982466E-05 ( -52.17%)
   displ. norm   :     0.0707407 α      lambda       -0.6924082E-05
   maximum displ.:     0.0586179 α      in ANC's #1, #2, #3, ...

........................................................................
.............................. CYCLE   13 ..............................
........................................................................
   1    -47.8064935 -0.478065E+02  0.171E-02    4.05       0.0  T
   2    -47.8064936 -0.117464E-06  0.996E-03    4.05       1.9  T
   3    -47.8064936 -0.338397E-08  0.124E-03    4.05      15.3  T
   4    -47.8064936 -0.179519E-07  0.501E-04    4.05      37.8  T
   5    -47.8064936 -0.145810E-08  0.274E-04    4.05      68.9  T
     SCC iter.                  ...        0 min,  0.006 sec
     gradient                   ...        0 min,  0.008 sec
 * total energy  :   -47.2548322 Eh     change       -0.8421293E-05 Eh
   gradient norm :     0.0006375 Eh/α   predicted    -0.3470300E-05 ( -58.79%)
   displ. norm   :     0.0411282 α      lambda       -0.5001401E-05
   maximum displ.:     0.0343645 α      in ANC's #1, #4, #9, ...

........................................................................
.............................. CYCLE   14 ..............................
........................................................................
   1    -47.8067375 -0.478067E+02  0.107E-02    4.05       0.0  T
   2    -47.8067376 -0.655628E-07  0.635E-03    4.05       3.0  T
   3    -47.8067376  0.615622E-08  0.109E-03    4.05      17.3  T
   4    -47.8067376 -0.169046E-07  0.312E-04    4.05      60.6  T
   5    -47.8067376 -0.293014E-09  0.169E-04    4.05     111.8  T
     SCC iter.                  ...        0 min,  0.008 sec
     gradient                   ...        0 min,  0.011 sec
 * total energy  :   -47.2548385 Eh     change       -0.6260133E-05 Eh
   gradient norm :     0.0007026 Eh/α   predicted    -0.2504833E-05 ( -59.99%)
   displ. norm   :     0.0467175 α      lambda       -0.5241860E-05
   maximum displ.:     0.0369803 α      in ANC's #1, #4, #3, ...

........................................................................
.............................. CYCLE   15 ..............................
........................................................................
   1    -47.8065433 -0.478065E+02  0.139E-02    4.05       0.0  T
   2    -47.8065434 -0.851294E-07  0.823E-03    4.05       2.3  T
   3    -47.8065434 -0.395895E-08  0.928E-04    4.05      20.4  T
   4    -47.8065434 -0.758790E-08  0.364E-04    4.05      51.9  T
     SCC iter.                  ...        0 min,  0.007 sec
     gradient                   ...        0 min,  0.012 sec
 * total energy  :   -47.2548451 Eh     change       -0.6567918E-05 Eh
   gradient norm :     0.0008225 Eh/α   predicted    -0.2626209E-05 ( -60.01%)
   displ. norm   :     0.0509147 α      lambda       -0.4718239E-05
   maximum displ.:     0.0382193 α      in ANC's #1, #4, #3, ...

........................................................................
.............................. CYCLE   16 ..............................
........................................................................
   1    -47.8065346 -0.478065E+02  0.154E-02    4.05       0.0  T
   2    -47.8065346 -0.286358E-07  0.921E-03    4.05       2.1  T
   3    -47.8065346  0.142460E-08  0.762E-04    4.05      24.8  T
   4    -47.8065346 -0.104138E-07  0.323E-04    4.05      58.5  T
     SCC iter.                  ...        0 min,  0.007 sec
     gradient                   ...        0 min,  0.008 sec
 * total energy  :   -47.2548510 Eh     change       -0.5956165E-05 Eh
   gradient norm :     0.0006738 Eh/α   predicted    -0.2362716E-05 ( -60.33%)
   displ. norm   :     0.0480755 α      lambda       -0.3781417E-05
   maximum displ.:     0.0384737 α      in ANC's #1, #4, #3, ...

........................................................................
.............................. CYCLE   17 ..............................
........................................................................
   1    -47.8064846 -0.478065E+02  0.151E-02    4.05       0.0  T
   2    -47.8064846 -0.257849E-07  0.899E-03    4.05       2.1  T
   3    -47.8064846  0.255731E-08  0.817E-04    4.05      23.1  T
   4    -47.8064846 -0.125433E-07  0.311E-04    4.05      60.8  T
     SCC iter.                  ...        0 min,  0.005 sec
     gradient                   ...        0 min,  0.011 sec
 * total energy  :   -47.2548557 Eh     change       -0.4675890E-05 Eh
   gradient norm :     0.0003641 Eh/α   predicted    -0.1893567E-05 ( -59.50%)
   displ. norm   :     0.0361592 α      lambda       -0.2485462E-05
   maximum displ.:     0.0315206 α      in ANC's #1, #4, #5, ...

   *** GEOMETRY OPTIMIZATION CONVERGED AFTER 17 ITERATIONS ***

------------------------------------------------------------------------
 total energy gain   :        -0.0033739 Eh       -2.1172 kcal/mol
 total RMSD          :         0.2114302 a0        0.1119 Å
 total power (kW/mol):        -0.5210743 (step)  -26.0690 (real)
------------------------------------------------------------------------

 ANCopt (total)                0 d,  0 h,  0 min,  0.340 sec
 optimizer setup                ...        0 min,  0.000 sec (  0.052%)
 model hessian                  ...        0 min,  0.007 sec (  2.085%)
 ANC generation                 ...        0 min,  0.001 sec (  0.206%)
 coordinate transformation      ...        0 min,  0.000 sec (  0.058%)
 single point calculation       ...        0 min,  0.326 sec ( 95.837%)
 optimization log               ...        0 min,  0.004 sec (  1.101%)
 hessian update                 ...        0 min,  0.000 sec (  0.051%)
 rational function              ...        0 min,  0.001 sec (  0.330%)

================
 final structure:
================
28
 xtb: 6.4.1 (afa7bdf)
O        -4.50430769922032   -0.32549786234410    0.48034638359105
O         4.02076135181981   -1.15898168252752    0.34293299417281
O        -3.89703255268896    1.49395343593561   -0.67954205857377
N        -2.24872303147229   -1.00974897057088    1.28193680930903
C        -1.40492223140330   -0.16871050509100   -0.89936036219893
C        -2.18110229996723    0.15568106851779    0.37765068554890
C         0.04564193157953   -0.43702356535188   -0.60368952161321
C         0.90306996755095    0.62914403796138   -0.34057815417812
C         0.53625681654254   -1.73106619861841   -0.54354334093404
C         2.22966238289949    0.40498124910835   -0.02473087169813
C         1.86543031538292   -1.96837679548055   -0.22945585858548
C        -3.68680103074536    0.49584190653828    0.01050437677869
C         2.71950600980918   -0.91295084661366    0.03407795172588
H        -1.51379196458336    0.68535606495136   -1.56979064161957
H        -1.86324687815318   -1.03080820089920   -1.38668911947967
H        -1.74661894958736    1.02562236087812    0.86945311665994
H         0.51484550752617    1.63356112602523   -0.39898581440181
H        -0.10503180483651   -2.56880560815145   -0.77109027530418
H         2.26134530360924   -2.96988309135368   -0.18744950328410
H        -1.70166115962450   -1.79968130508252    0.92961140754406
H        -3.29974380450274   -1.21487106639337    1.23967430921869
H         4.47735995178909   -0.31474482672728    0.48679005526283
H        -1.97601037944486   -0.79957509211071    2.24322535964695
O         3.16199158551278    1.37706971702608    0.25043060776169
C         2.75583100811117    2.72928240830320    0.21166564528728
H         1.97238200629397    2.92692669599476    0.94755917160473
H         3.64492312193371    3.30394271019255    0.46111942155321
H         2.40568152586900    3.00807683588350   -0.78543377379449
 
 Bond Distances (Angstroems)
 ---------------------------
O1-C12=1.2505        O2-C13=1.3598        O2-H22=0.9705        O3-C12=1.2315        N4-C6=1.4767         N4-H20=1.0234        
N4-H21=1.0717        N4-H23=1.0211        C5-C6=1.5292         C5-C7=1.5045         C5-H14=1.0912        C5-H15=1.0912        
C6-N4=1.4767         C6-C5=1.5292         C6-C12=1.5867        C6-H16=1.0897        C7-C5=1.5045         C7-C8=1.3932         
C7-C9=1.3852         C8-C7=1.3932         C8-C10=1.3820        C8-H17=1.0784        C9-C7=1.3852         C9-C11=1.3862        
C9-H18=1.0793        C10-C8=1.3820        C10-C13=1.4072       C10-O24=1.3747       C11-C9=1.3862        C11-C13=1.3830       
C11-H19=1.0777       C12-O1=1.2505        C12-O3=1.2315        C12-C6=1.5867        C13-O2=1.3598        C13-C10=1.4072       
C13-C11=1.3830       H14-C5=1.0912        H15-C5=1.0912        H16-C6=1.0897        H17-C8=1.0784        H18-C9=1.0793        
H19-C11=1.0777       H20-N4=1.0234        H21-N4=1.0717        H22-O2=0.9705        H23-N4=1.0211        O24-C10=1.3747       
O24-C25=1.4124       C25-O24=1.4124       C25-H26=1.0929       C25-H27=1.0876       C25-H28=1.0929       H26-C25=1.0929       
H27-C25=1.0876       H28-C25=1.0929       
 C  H  Rav=1.0868 sigma=0.0061  Rmin=1.0777  Rmax=1.0929     9
 C  C  Rav=1.4397 sigma=0.0741  Rmin=1.3820  Rmax=1.5867     9
 N  H  Rav=1.0387 sigma=0.0233  Rmin=1.0211  Rmax=1.0717     3
 N  C  Rav=1.4767 sigma=0.0000  Rmin=1.4767  Rmax=1.4767     1
 O  H  Rav=0.9705 sigma=0.0000  Rmin=0.9705  Rmax=0.9705     1
 O  C  Rav=1.3258 sigma=0.0716  Rmin=1.2315  Rmax=1.4124     5
 
 selected bond angles (degree)
 --------------------
H22-O2-C13=109.06              H20-N4-C6=111.95               H21-N4-C6= 99.89               H21-N4-H20=111.28              
H23-N4-C6=113.69               H23-N4-H20=109.89              H23-N4-H21=109.78              C7-C5-C6=111.29                
H14-C5-C6=107.24               H14-C5-C7=110.89               H15-C5-C6=109.11               H15-C5-C7=110.60               
H15-C5-H14=107.58              C5-C6-N4=111.54                C12-C6-N4=105.51               C12-C6-C5=109.51               
H16-C6-N4=111.84               H16-C6-C5=110.11               H16-C6-C12=108.16              C8-C7-C5=119.60                
C9-C7-C5=121.11                C9-C7-C8=119.26                C10-C8-C7=120.65               H17-C8-C7=118.75               
H17-C8-C10=120.60              C11-C9-C7=120.62               H18-C9-C7=120.37               H18-C9-C11=118.99              
C13-C10-C8=119.71              O24-C10-C8=125.60              O24-C10-C13=114.70             
 
 selected dihedral angles (degree)
 ---------------------------------
C5-C6-N4-H20=  4.66           C5-C6-N4-H21=246.79           C5-C6-N4-H23=129.93           C12-C6-N4-H20=123.49          
C12-C6-N4-H21=  5.61          C12-C6-N4-H23=248.76          H16-C6-N4-H20=240.85          H16-C6-N4-H21=122.98          
H16-C6-N4-H23=  6.12          N4-C6-C5-C7=293.84            N4-C6-C5-H14=172.40           N4-C6-C5-H15= 56.16           
C12-C6-C5-C7=177.42           C12-C6-C5-H14= 55.99          C12-C6-C5-H15=299.74          H16-C6-C5-C7= 58.62           
H16-C6-C5-H14=297.18          H16-C6-C5-H15=180.94          C8-C7-C5-C6=283.35            C8-C7-C5-H14= 42.63           
C8-C7-C5-H15=161.90           C9-C7-C5-C6=101.14            C9-C7-C5-H14=220.42           C9-C7-C5-H15=339.69           
C10-C8-C7-C5=177.94           C10-C8-C7-C9=  0.11           H17-C8-C7-C5=357.25           H17-C8-C7-C9=179.42           
C11-C9-C7-C5=182.01           C11-C9-C7-C8=359.81           H18-C9-C7-C5=  3.92           H18-C9-C7-C8=181.72           
C13-C10-C8-C7=359.89          C13-C10-C8-H17=180.59         O24-C10-C8-C7=179.91          O24-C10-C8-H17=  0.61         
           -------------------------------------------------
          |                Final Singlepoint                |
           -------------------------------------------------

          ...................................................
          :                      SETUP                      :
          :.................................................:
          :  # basis functions                  73          :
          :  # atomic orbitals                  73          :
          :  # shells                           43          :
          :  # electrons                        82          :
          :  max. iterations                   250          :
          :  Hamiltonian                  GFN2-xTB          :
          :  restarted?                      false          :
          :  GBSA solvation                   true          :
          :  PC potential                    false          :
          :  electronic temp.          300.0000000     K    :
          :  accuracy                    1.0000000          :
          :  -> integral cutoff          0.2500000E+02      :
          :  -> integral neglect         0.1000000E-07      :
          :  -> SCF convergence          0.1000000E-05 Eh   :
          :  -> wf. convergence          0.1000000E-03 e    :
          :  Broyden damping             0.4000000          :
          ...................................................

 iter      E             dE          RMSdq      gap      omega  full diag
   1    -47.8064846 -0.478065E+02  0.148E-04    4.05       0.0  T
   2    -47.8064846 -0.152113E-09  0.906E-05    4.05     208.6  T
   3    -47.8064846 -0.779181E-10  0.511E-05    4.05     370.1  T

   *** convergence criteria satisfied after 3 iterations ***

         #    Occupation            Energy/Eh            Energy/eV
      -------------------------------------------------------------
         1        2.0000           -0.7251420             -19.7321
       ...           ...                  ...                  ...
        35        2.0000           -0.4441284             -12.0853
        36        2.0000           -0.4298402             -11.6965
        37        2.0000           -0.4198211             -11.4239
        38        2.0000           -0.4091125             -11.1325
        39        2.0000           -0.3988539             -10.8534
        40        2.0000           -0.3832929             -10.4299
        41        2.0000           -0.3722455             -10.1293 (HOMO)
        42                         -0.2232304              -6.0744 (LUMO)
        43                         -0.2181130              -5.9352
        44                         -0.1894209              -5.1544
        45                         -0.0934949              -2.5441
        46                         -0.0327703              -0.8917
       ...                                ...                  ...
        73                          0.6580127              17.9054
      -------------------------------------------------------------
                  HL-Gap            0.1490151 Eh            4.0549 eV
             Fermi-level           -0.2977380 Eh           -8.1019 eV

 SCC (total)                   0 d,  0 h,  0 min,  0.020 sec
 SCC setup                      ...        0 min,  0.001 sec (  3.810%)
 Dispersion                     ...        0 min,  0.000 sec (  0.638%)
 classical contributions        ...        0 min,  0.000 sec (  0.190%)
 integral evaluation            ...        0 min,  0.005 sec ( 23.951%)
 iterations                     ...        0 min,  0.005 sec ( 26.612%)
 molecular gradient             ...        0 min,  0.009 sec ( 43.431%)
 printout                       ...        0 min,  0.000 sec (  1.226%)

         :::::::::::::::::::::::::::::::::::::::::::::::::::::
         ::                     SUMMARY                     ::
         :::::::::::::::::::::::::::::::::::::::::::::::::::::
         :: total energy             -47.254855692939 Eh    ::
         :: total w/o Gsasa/hb       -47.245127546197 Eh    ::
         :: gradient norm              0.000366345617 Eh/a0 ::
         :: HOMO-LUMO gap              4.054907673046 eV    ::
         ::.................................................::
         :: SCC energy               -47.806484637454 Eh    ::
         :: -> isotropic ES            0.201130046784 Eh    ::
         :: -> anisotropic ES         -0.011835987583 Eh    ::
         :: -> anisotropic XC          0.009313585433 Eh    ::
         :: -> dispersion             -0.024531890983 Eh    ::
         :: -> Gsolv                  -0.068907783048 Eh    ::
         ::    -> Gelec               -0.059179636306 Eh    ::
         ::    -> Gsasa                0.004444913027 Eh    ::
         ::    -> Ghb                 -0.015253819466 Eh    ::
         ::    -> Gshift               0.001080759698 Eh    ::
         :: repulsion energy           0.551485811662 Eh    ::
         :: add. restraining           0.000000000000 Eh    ::
         :: total charge               0.000000000000 e     ::
         :::::::::::::::::::::::::::::::::::::::::::::::::::::

           ------------------------------------------------- 
          |                Numerical Hessian                |
           ------------------------------------------------- 
step length          :   0.00500
SCC accuracy         :   0.30000
Hessian scale factor :   1.00000
frozen atoms in %    :   0.00000    0
RMS gradient         :   0.00037
estimated CPU  time      0.05 min
estimated wall time      0.05 min

writing file <hessian>.

 projected vibrational frequencies (cm⁻¹)
eigval :       -0.00    -0.00    -0.00    -0.00    -0.00     0.00
eigval :       33.18    35.28    55.66    70.16    87.23   146.84
eigval :      164.29   184.12   204.05   258.44   283.06   328.57
eigval :      335.84   353.77   372.10   406.85   421.80   435.94
eigval :      463.00   527.13   531.97   537.75   591.31   654.37
eigval :      675.69   694.63   747.04   806.69   824.71   851.75
eigval :      865.43   892.98   905.59   924.30   958.77  1014.52
eigval :     1040.52  1051.25  1104.91  1116.44  1117.37  1137.86
eigval :     1149.06  1149.50  1160.41  1189.14  1207.13  1251.40
eigval :     1258.85  1286.61  1288.76  1314.37  1326.82  1368.51
eigval :     1393.20  1393.81  1398.85  1435.08  1458.00  1471.07
eigval :     1475.50  1490.13  1585.36  1596.44  1732.53  2562.88
eigval :     2949.79  2962.53  2988.35  3002.69  3009.93  3036.94
eigval :     3085.07  3105.16  3114.93  3286.88  3321.09  3433.58
           -------------------------------------------------
          |                Property Printout                |
           -------------------------------------------------

    * Orbital Energies and Occupations

         #    Occupation            Energy/Eh            Energy/eV
      -------------------------------------------------------------
         1        2.0000           -0.7251420             -19.7321
       ...           ...                  ...                  ...
        29        2.0000           -0.4899033             -13.3309
        30        2.0000           -0.4778088             -13.0018
        31        2.0000           -0.4682674             -12.7422
        32        2.0000           -0.4669932             -12.7075
        33        2.0000           -0.4552520             -12.3880
        34        2.0000           -0.4465296             -12.1507
        35        2.0000           -0.4441284             -12.0853
        36        2.0000           -0.4298402             -11.6965
        37        2.0000           -0.4198212             -11.4239
        38        2.0000           -0.4091125             -11.1325
        39        2.0000           -0.3988539             -10.8534
        40        2.0000           -0.3832929             -10.4299
        41        2.0000           -0.3722455             -10.1293 (HOMO)
        42                         -0.2232304              -6.0744 (LUMO)
        43                         -0.2181130              -5.9352
        44                         -0.1894209              -5.1544
        45                         -0.0934949              -2.5441
        46                         -0.0327702              -0.8917
        47                          0.0076069               0.2070
        48                          0.0452739               1.2320
        49                          0.0606413               1.6501
        50                          0.0801293               2.1804
        51                          0.0918617               2.4997
        52                          0.1063037               2.8927
       ...                                ...                  ...
        73                          0.6580127              17.9054
      -------------------------------------------------------------
                  HL-Gap            0.1490151 Eh            4.0549 eV
             Fermi-level           -0.2977380 Eh           -8.1019 eV

     #   Z          covCN         q      C6AA      α(0)
     1   8 O        0.857    -0.605    26.236     6.867
     2   8 O        1.659    -0.447    21.787     6.301
     3   8 O        0.856    -0.607    26.291     6.875
     4   7 N        3.483    -0.187    25.039     7.432
     5   6 C        3.810    -0.074    21.901     6.661
     6   6 C        3.777    -0.014    20.842     6.504
     7   6 C        2.970    -0.002    28.080     8.692
     8   6 C        2.922    -0.079    29.976     8.978
     9   6 C        2.923    -0.062    29.538     8.913
    10   6 C        2.860     0.106    25.659     8.303
    11   6 C        2.917    -0.067    29.679     8.934
    12   6 C        2.683     0.367    20.783     7.460
    13   6 C        2.846     0.123    25.301     8.244
    14   1 H        0.924     0.066     2.128     2.281
    15   1 H        0.924     0.062     2.180     2.309
    16   1 H        0.925     0.081     1.968     2.194
    17   1 H        0.926     0.048     2.339     2.392
    18   1 H        0.926     0.057     2.239     2.340
    19   1 H        0.926     0.061     2.183     2.311
    20   1 H        0.859     0.289     0.746     1.353
    21   1 H        0.854     0.312     0.678     1.290
    22   1 H        0.804     0.371     0.541     1.156
    23   1 H        0.860     0.304     0.702     1.313
    24   8 O        1.704    -0.309    19.142     5.907
    25   6 C        3.641     0.022    20.551     6.519
    26   1 H        0.924     0.054     2.266     2.354
    27   1 H        0.925     0.078     2.004     2.214
    28   1 H        0.924     0.051     2.306     2.375

 Mol. C6AA /au·bohr⁶  :       8220.603941
 Mol. C8AA /au·bohr⁸  :     189988.259776
 Mol. α(0) /au        :        138.471436


Wiberg/Mayer (AO) data.
largest (>0.10) Wiberg bond orders for each atom

 ---------------------------------------------------------------------------
     #   Z sym  total        # sym  WBO       # sym  WBO       # sym  WBO
 ---------------------------------------------------------------------------
     1   8 O    1.884 --    12 C    1.469     3 O    0.216
     2   8 O    2.083 --    13 C    1.077    22 H    0.839
     3   8 O    1.859 --    12 C    1.557     1 O    0.216
     4   7 N    3.631 --     6 C    0.970    23 H    0.897    20 H    0.895
                            21 H    0.798
     5   6 C    3.989 --     7 C    1.008     6 C    0.980    15 H    0.970
                            14 H    0.961
     6   6 C    3.935 --     5 C    0.980     4 N    0.970    16 H    0.959
                            12 C    0.875
     7   6 C    3.987 --     9 C    1.428     8 C    1.380     5 C    1.008
     8   6 C    3.985 --    10 C    1.416     7 C    1.380    17 H    0.963
     9   6 C    3.986 --     7 C    1.428    11 C    1.417    18 H    0.965
    10   6 C    3.929 --     8 C    1.416    13 C    1.280    24 O    1.035
    11   6 C    3.985 --     9 C    1.417    13 C    1.404    19 H    0.966
    12   6 C    3.932 --     3 O    1.557     1 O    1.469     6 C    0.875
    13   6 C    3.939 --    11 C    1.404    10 C    1.280     2 O    1.077
    14   1 H    0.995 --     5 C    0.961
    15   1 H    0.996 --     5 C    0.970
    16   1 H    0.993 --     6 C    0.959
    17   1 H    0.998 --     8 C    0.963
    18   1 H    0.997 --     9 C    0.965
    19   1 H    0.995 --    11 C    0.966
    20   1 H    0.916 --     4 N    0.895
    21   1 H    0.902 --     4 N    0.798
    22   1 H    0.862 --     2 O    0.839
    23   1 H    0.908 --     4 N    0.897
    24   8 O    2.195 --    10 C    1.035    25 C    0.973
    25   6 C    3.933 --    27 H    0.978    28 H    0.977    26 H    0.977
                            24 O    0.973
    26   1 H    0.997 --    25 C    0.977
    27   1 H    0.994 --    25 C    0.978
    28   1 H    0.997 --    25 C    0.977
 ---------------------------------------------------------------------------

Topologies differ in total number of bonds
Writing topology from bond orders to xtbtopo.mol

molecular dipole:
                 x           y           z       tot (Debye)
 q only:        3.344      -1.751       2.216
   full:        3.478      -1.457       2.251      11.161
molecular quadrupole (traceless):
                xx          xy          yy          xz          yz          zz
 q only:      -47.075      30.871      22.982     -13.944      -1.363      24.093
  q+dip:      -48.862      33.215      24.333     -13.465       0.325      24.529
   full:      -49.992      33.232      23.669     -14.276       0.227      26.323

           -------------------------------------------------
          |                Geometry Summary                 |
           -------------------------------------------------

      molecular mass/u    :      211.2149116
   center of mass at/Å    :       -0.0116827       0.0013907       0.0106318
  moments of inertia/u·Å² :        0.4273373E+03   0.1745537E+04   0.2025116E+04
rotational constants/cm⁻¹ :        0.3944807E-01   0.9657560E-02   0.8324278E-02

 * 25 selected distances

     #   Z          #   Z                                           value/Å
     4   7 N        6   6 C                                       1.4766628
     5   6 C        6   6 C                                       1.5291967 (max)
     7   6 C        8   6 C                                       1.3932422
     7   6 C        9   6 C                                       1.3852317
     8   6 C       10   6 C                                       1.3819754
     9   6 C       11   6 C                                       1.3862429
     3   8 O       12   6 C                                       1.2314983
     2   8 O       13   6 C                                       1.3598485
    10   6 C       13   6 C                                       1.4072492
    11   6 C       13   6 C                                       1.3830471
     5   6 C       14   1 H                                       1.0912191
     5   6 C       15   1 H                                       1.0912210
     6   6 C       16   1 H                                       1.0896987
     8   6 C       17   1 H                                       1.0784171
     9   6 C       18   1 H                                       1.0792757
    11   6 C       19   1 H                                       1.0777421
     4   7 N       20   1 H                                       1.0234271
     4   7 N       21   1 H                                       1.0716837
     2   8 O       22   1 H                                       0.9705220 (min)
     4   7 N       23   1 H                                       1.0210881
    10   6 C       24   8 O                                       1.3747391
    24   8 O       25   6 C                                       1.4124264
    25   6 C       26   1 H                                       1.0928837
    25   6 C       27   1 H                                       1.0876334
    25   6 C       28   1 H                                       1.0929493

 * 6 distinct bonds (by element types)

   Z      Z             #   av. dist./Å        max./Å        min./Å
   1 H    6 C           9     1.0867822     1.0929493     1.0777421
   6 C    6 C           7     1.4094550     1.5291967     1.3819754
   1 H    7 N           3     1.0387329     1.0716837     1.0210881
   6 C    7 N           1     1.4766628     1.4766628     1.4766628
   1 H    8 O           1     0.9705220     0.9705220     0.9705220
   6 C    8 O           4     1.3446281     1.4124264     1.2314983

           -------------------------------------------------
          |               Frequency Printout                |
           -------------------------------------------------
 projected vibrational frequencies (cm⁻¹)
eigval :       -0.00    -0.00    -0.00    -0.00    -0.00     0.00
eigval :       33.18    35.28    55.66    70.16    87.23   146.84
eigval :      164.29   184.12   204.05   258.44   283.06   328.57
eigval :      335.84   353.77   372.10   406.85   421.80   435.94
eigval :      463.00   527.13   531.97   537.75   591.31   654.37
eigval :      675.69   694.63   747.04   806.69   824.71   851.75
eigval :      865.43   892.98   905.59   924.30   958.77  1014.52
eigval :     1040.52  1051.25  1104.91  1116.44  1117.37  1137.86
eigval :     1149.06  1149.50  1160.41  1189.14  1207.13  1251.40
eigval :     1258.85  1286.61  1288.76  1314.37  1326.82  1368.51
eigval :     1393.20  1393.81  1398.85  1435.08  1458.00  1471.07
eigval :     1475.50  1490.13  1585.36  1596.44  1732.53  2562.88
eigval :     2949.79  2962.53  2988.35  3002.69  3009.93  3036.94
eigval :     3085.07  3105.16  3114.93  3286.88  3321.09  3433.58
 reduced masses (amu)
   1: 11.46   2: 13.10   3: 12.73   4: 12.95   5: 13.46   6: 12.94   7: 12.53   8: 12.48
   9: 13.05  10: 12.65  11: 10.64  12: 12.44  13: 12.97  14:  8.03  15:  8.05  16:  7.88
  17: 11.57  18:  3.00  19: 10.59  20: 10.74  21:  9.96  22:  8.58  23:  3.73  24:  9.38
  25: 12.45  26: 12.45  27: 10.38  28: 12.07  29: 11.58  30: 12.02  31: 11.49  32: 12.27
  33: 12.32  34: 11.93  35:  4.76  36:  9.63  37:  3.45  38:  6.99  39:  3.35  40:  5.11
  41:  9.51  42:  4.68  43: 10.96  44:  6.11  45:  7.64  46:  7.97  47:  3.71  48:  6.59
  49:  5.00  50:  6.44  51:  5.24  52:  4.09  53:  5.52  54:  4.30  55:  3.54  56:  8.92
  57: 10.81  58:  4.50  59:  8.52  60: 10.32  61:  2.24  62:  2.55  63:  1.93  64: 10.38
  65:  1.54  66:  2.07  67:  2.03  68: 10.17  69: 11.54  70: 11.61  71: 12.92  72:  1.83
  73:  1.95  74:  1.44  75:  1.89  76:  1.56  77:  1.80  78:  1.70  79:  1.82  80:  1.82
  81:  1.85  82:  1.80  83:  1.80  84:  1.87
 IR intensities (km·mol⁻¹)
   1:  3.17   2:  0.89   3:  0.81   4:  0.37   5:  2.93   6:  1.11   7: 37.89   8: 14.71
   9: 15.39  10:  3.55  11:  1.82  12: 29.44  13:  4.87  14:  0.30  15:  0.73  16:  0.59
  17:  8.18  18:  7.01  19:  5.78  20:104.07  21: 26.85  22: 27.88  23:177.52  24: 37.96
  25: 18.89  26: 42.45  27: 25.59  28: 14.71  29:  4.33  30: 26.88  31:  9.23  32: 20.67
  33: 54.87  34:126.51  35: 64.28  36:225.75  37: 12.07  38: 16.95  39:  0.34  40: 49.62
  41: 12.97  42:113.17  43: 37.93  44: 11.83  45: 77.16  46: 26.34  47:  2.90  48:401.96
  49: 38.87  50: 50.63  51:113.25  52: 18.91  53:109.33  54:190.84  55: 41.73  56: 60.76
  57:539.81  58:143.17  59:525.50  60: 29.35  61: 84.02  62: 70.44  63:109.14  64: 58.59
  65:  7.59  66: 59.32  67:  1.74  68:348.24  69:  5.71  70: 45.54  71:774.84  72:781.81
  73: 45.94  74: 43.85  75: 24.73  76: 28.99  77: 31.61  78: 17.61  79: 41.38  80: 38.28
  81: 40.18  82:124.38  83:130.20  84:211.43
 Raman intensities (amu)
   1:  0.00   2:  0.00   3:  0.00   4:  0.00   5:  0.00   6:  0.00   7:  0.00   8:  0.00
   9:  0.00  10:  0.00  11:  0.00  12:  0.00  13:  0.00  14:  0.00  15:  0.00  16:  0.00
  17:  0.00  18:  0.00  19:  0.00  20:  0.00  21:  0.00  22:  0.00  23:  0.00  24:  0.00
  25:  0.00  26:  0.00  27:  0.00  28:  0.00  29:  0.00  30:  0.00  31:  0.00  32:  0.00
  33:  0.00  34:  0.00  35:  0.00  36:  0.00  37:  0.00  38:  0.00  39:  0.00  40:  0.00
  41:  0.00  42:  0.00  43:  0.00  44:  0.00  45:  0.00  46:  0.00  47:  0.00  48:  0.00
  49:  0.00  50:  0.00  51:  0.00  52:  0.00  53:  0.00  54:  0.00  55:  0.00  56:  0.00
  57:  0.00  58:  0.00  59:  0.00  60:  0.00  61:  0.00  62:  0.00  63:  0.00  64:  0.00
  65:  0.00  66:  0.00  67:  0.00  68:  0.00  69:  0.00  70:  0.00  71:  0.00  72:  0.00
  73:  0.00  74:  0.00  75:  0.00  76:  0.00  77:  0.00  78:  0.00  79:  0.00  80:  0.00
  81:  0.00  82:  0.00  83:  0.00  84:  0.00
 output can be read by thermo (or use thermo option).
 writing <g98.out> molden fake output.
 recommended (thermochemical) frequency scaling factor: 1.0
           -------------------------------------------------
          |             Thermodynamic Functions             |
           -------------------------------------------------

Molecule has no symmetry elements
It seems to be the C1 point group
c1  symmetry found (for desy threshold:  0.10E+00) used in thermo

          ...................................................
          :                      SETUP                      :
          :.................................................:
          :  # frequencies                          78      :
          :  # imaginary freq.                       0      :
          :  linear?                             false      :
          :  only rotor calc.                    false      :
          :  symmetry                               c1      :
          :  rotational number                       1      :
          :  scaling factor                  1.0000000      :
          :  rotor cutoff                   50.0000000 cm⁻¹ :
          :  imag. cutoff                  -20.0000000 cm⁻¹ :
          :.................................................:

    mode    ω/cm⁻¹     T·S(HO)/kcal·mol⁻¹    T·S(FR)/kcal·mol⁻¹   T·S(vib)
   ------------------------------------------------------------------------
       1     33.18    -1.67847 ( 16.24%)    -1.17793 ( 83.76%)    -1.25922
       2     35.28    -1.64214 ( 19.87%)    -1.15973 ( 80.13%)    -1.25558
       3     55.66    -1.37307 ( 60.57%)    -1.02470 ( 39.43%)    -1.23570
       4     70.16    -1.23699 ( 79.49%)    -0.95615 ( 20.51%)    -1.17940
       5     87.23    -1.10948 ( 90.26%)    -0.89164 (  9.74%)    -1.08826
       6    146.84    -0.80880 ( 98.67%)    -0.73737 (  1.33%)    -0.80785
       7    164.29    -0.74533 ( 99.15%)    -0.70412 (  0.85%)    -0.74498
       8    184.12    -0.68165 ( 99.46%)    -0.67037 (  0.54%)    -0.68159
       9    204.05    -0.62500 ( 99.64%)    -0.63991 (  0.36%)    -0.62505
      10    258.44    -0.49858 ( 99.86%)    -0.56991 (  0.14%)    -0.49868
      11    283.06    -0.45174 ( 99.90%)    -0.54297 (  0.10%)    -0.45182
   ------------------------------------------------------------------------

   temp. (K)  partition function   enthalpy   heat capacity  entropy
                                   cal/mol     cal/K/mol   cal/K/mol   J/K/mol
 298.15  VIB  0.254E+06             7622.425     50.096     46.870
         ROT  0.297E+07              888.752      2.981     32.599
         INT  0.755E+12             8511.177     53.077     79.468
         TR   0.297E+28             1481.254      4.968     41.928
         TOT                        9992.4310    58.0450   121.3958   507.9199

       T/K    H(0)-H(T)+PV         H(T)/Eh          T*S/Eh         G(T)/Eh
   ------------------------------------------------------------------------
    298.15    0.159240E-01    0.233383E+00    0.576791E-01    0.175704E+00
   ------------------------------------------------------------------------

         :::::::::::::::::::::::::::::::::::::::::::::::::::::
         ::                  THERMODYNAMIC                  ::
         :::::::::::::::::::::::::::::::::::::::::::::::::::::
         :: total free energy         -47.079151730832 Eh   ::
         ::.................................................::
         :: total energy              -47.254855696646 Eh   ::
         :: zero point energy           0.217459065217 Eh   ::
         :: G(RRHO) w/o ZPVE           -0.041755099403 Eh   ::
         :: G(RRHO) contrib.            0.175703965814 Eh   ::
         :::::::::::::::::::::::::::::::::::::::::::::::::::::

optimized geometry written to: xtbopt.xyz


           -------------------------------------------------
          | TOTAL ENERGY              -47.254855696646 Eh   |
          | TOTAL ENTHALPY            -47.021472679016 Eh   |
          | TOTAL FREE ENERGY         -47.079151730832 Eh   |
          | GRADIENT NORM               0.000366544295 Eh/α |
          | HOMO-LUMO GAP               4.054907498371 eV   |
           -------------------------------------------------

------------------------------------------------------------------------
 * finished run on 2021/11/15 at 09:36:27.461     
------------------------------------------------------------------------
 total:
 * wall-time:     0 d,  0 h,  0 min,  3.224 sec
 *  cpu-time:     0 d,  0 h,  0 min,  3.203 sec
 * ratio c/w:     0.993 speedup
 SCF:
 * wall-time:     0 d,  0 h,  0 min,  0.024 sec
 *  cpu-time:     0 d,  0 h,  0 min,  0.016 sec
 * ratio c/w:     0.650 speedup
 ANC optimizer:
 * wall-time:     0 d,  0 h,  0 min,  0.362 sec
 *  cpu-time:     0 d,  0 h,  0 min,  0.359 sec
 * ratio c/w:     0.993 speedup
 analytical hessian:
 * wall-time:     0 d,  0 h,  0 min,  2.799 sec
 *  cpu-time:     0 d,  0 h,  0 min,  2.797 sec
 * ratio c/w:     0.999 speedup

