 Entering Gaussian System
 *********************************************
 Gaussian 98:
 frequency output generated by the xtb code
 *********************************************
                         Standard orientation:
 --------------------------------------------------------------------
  Center     Atomic     Atomic              Coordinates (Angstroms)
  Number     Number      Type              X           Y           Z
 --------------------------------------------------------------------
    1          8             0       -4.504308   -0.325473    0.480363
    2          8             0        4.020756   -1.159002    0.342921
    3          8             0       -3.897027    1.493973   -0.679531
    4          7             0       -2.248724   -1.009735    1.281946
    5          6             0       -1.404926   -0.168705   -0.899355
    6          6             0       -2.181100    0.155693    0.377658
    7          6             0        0.045638   -0.437025   -0.603689
    8          6             0        0.903072    0.629139   -0.340582
    9          6             0        0.536246   -1.731070   -0.543542
   10          6             0        2.229664    0.404970   -0.024739
   11          6             0        1.865419   -1.968387   -0.229459
   12          6             0       -3.686798    0.495861    0.010516
   13          6             0        2.719501   -0.912965    0.034070
   14          1             0       -1.513794    0.685361   -1.569787
   15          1             0       -1.863257   -1.030801   -1.386681
   16          1             0       -1.746611    1.025633    0.869457
   17          1             0        0.514853    1.633558   -0.398990
   18          1             0       -0.105048   -2.568806   -0.771085
   19          1             0        2.261329   -2.969895   -0.187452
   20          1             0       -1.701667   -1.799671    0.929620
   21          1             0       -3.299746   -1.214852    1.239688
   22          1             0        4.477360   -0.314767    0.486775
   23          1             0       -1.976007   -0.799561    2.243234
   24          8             0        3.162000    1.377054    0.250417
   25          6             0        2.755846    2.729268    0.211651
   26          1             0        1.972401    2.926918    0.947547
   27          1             0        3.644942    3.303924    0.461101
   28          1             0        2.405695    3.008063   -0.785447
 --------------------------------------------------------------------
     1 basis functions        1 primitive gaussians
     1 alpha electrons        1 beta electrons
 
 Harmonic frequencies (cm**-1), IR intensities (km*mol⁻¹),
 Raman scattering activities (A**4/amu), Raman depolarization ratios,
 reduced masses (AMU), force constants (mDyne/A) and normal coordinates:
                      1                      2                      3
                        a                      a                      a 
 Frequencies --    33.1797                35.2830                55.6639
 Red. masses --    12.5289                12.4783                13.0486
 Frc consts  --     0.0000                 0.0000                 0.0000
 IR Inten    --    37.8865                14.7137                15.3943
 Raman Activ --     0.0000                 0.0000                 0.0000
 Depolar     --     0.0000                 0.0000                 0.0000
 Atom AN      X      Y      Z        X      Y      Z        X      Y      Z
   1   8    -0.12   0.11  -0.22    -0.08   0.41   0.17     0.12   0.19   0.41
   2   8     0.03   0.09   0.08     0.14   0.14  -0.21    -0.17   0.02   0.43
   3   8     0.28   0.32   0.32     0.26   0.04  -0.25     0.06   0.01   0.10
   4   7    -0.27  -0.42  -0.18    -0.17   0.03   0.12     0.22  -0.09  -0.16
   5   6     0.01  -0.06   0.05    -0.00  -0.27   0.04    -0.01  -0.04  -0.22
   6   6    -0.02  -0.21   0.07     0.01  -0.07  -0.00     0.13  -0.06  -0.13
   7   6     0.01  -0.04   0.05     0.01  -0.19   0.03     0.00  -0.03  -0.27
   8   6    -0.00  -0.01  -0.01    -0.07  -0.13   0.06    -0.04  -0.02  -0.20
   9   6     0.04  -0.02   0.10     0.13  -0.15  -0.04     0.01  -0.03  -0.22
  10   6     0.00   0.03  -0.02    -0.04  -0.02   0.00    -0.08  -0.00  -0.01
  11   6     0.04   0.01   0.11     0.16  -0.04  -0.11    -0.02  -0.01  -0.04
  12   6     0.05   0.08   0.06     0.07   0.12  -0.03     0.09   0.04   0.12
  13   6     0.02   0.04   0.06     0.08   0.02  -0.10    -0.08   0.00   0.11
  14   1    -0.00   0.01   0.04    -0.01  -0.11  -0.03    -0.02  -0.01  -0.06
  15   1     0.01  -0.00  -0.02     0.00  -0.10   0.05    -0.01  -0.01  -0.06
  16   1     0.02  -0.11   0.08     0.03  -0.02  -0.02     0.07  -0.03  -0.04
  17   1    -0.01  -0.01  -0.02    -0.05  -0.05   0.03    -0.01  -0.01  -0.07
  18   1     0.02  -0.01   0.04     0.05  -0.06  -0.01     0.01  -0.01  -0.09
  19   1     0.02   0.01   0.05     0.07  -0.00  -0.05    -0.01  -0.00   0.01
  20   1    -0.09  -0.11  -0.08    -0.10  -0.03   0.04     0.01  -0.04  -0.09
  21   1    -0.08  -0.07  -0.09    -0.06   0.07   0.06     0.05   0.01   0.03
  22   1     0.00   0.03   0.00     0.02   0.05  -0.05    -0.05   0.01   0.13
  23   1    -0.09  -0.18  -0.03    -0.01   0.02   0.02     0.13  -0.04  -0.06
  24   8    -0.01   0.07  -0.11    -0.14   0.06   0.04    -0.15   0.02   0.12
  25   6    -0.00   0.06  -0.28    -0.28   0.01   0.22    -0.12   0.01  -0.07
  26   1    -0.00   0.05  -0.09    -0.08  -0.05   0.08    -0.07   0.02  -0.06
  27   1    -0.00   0.03  -0.10    -0.10   0.02   0.07    -0.05   0.01   0.01
  28   1    -0.00  -0.02  -0.09    -0.10   0.03   0.08     0.01  -0.02  -0.04
                      4                      5                      6
                        a                      a                      a 
 Frequencies --    70.1593                87.2314               146.8429
 Red. masses --    12.6487                10.6412                12.4359
 Frc consts  --     0.0000                 0.0000                 0.0000
 IR Inten    --     3.5452                 1.8207                29.4395
 Raman Activ --     0.0000                 0.0000                 0.0000
 Depolar     --     0.0000                 0.0000                 0.0000
 Atom AN      X      Y      Z        X      Y      Z        X      Y      Z
   1   8     0.19  -0.23  -0.39     0.04  -0.07  -0.14    -0.04  -0.04  -0.15
   2   8    -0.03   0.04   0.06     0.02   0.02  -0.05    -0.16  -0.02   0.43
   3   8     0.04   0.31   0.37    -0.00   0.07   0.05     0.23  -0.11  -0.13
   4   7     0.17   0.24   0.13     0.02   0.14   0.13    -0.15  -0.01   0.30
   5   6    -0.03  -0.14  -0.04    -0.01  -0.07   0.05    -0.07  -0.01   0.22
   6   6     0.11   0.11  -0.02     0.01   0.06   0.03    -0.01  -0.03   0.26
   7   6    -0.02  -0.13  -0.08    -0.01  -0.06   0.03    -0.01   0.06  -0.04
   8   6    -0.05  -0.09  -0.14    -0.08  -0.05   0.25    -0.00   0.05  -0.06
   9   6     0.00  -0.12   0.03     0.07  -0.04  -0.23     0.03   0.06  -0.32
  10   6    -0.06  -0.03  -0.09    -0.07  -0.03   0.23     0.01   0.03  -0.13
  11   6     0.01  -0.06   0.06     0.09  -0.01  -0.25     0.02   0.04  -0.30
  12   6     0.10   0.06   0.00     0.01   0.02  -0.02     0.05  -0.04   0.01
  13   6    -0.02  -0.02  -0.00     0.01  -0.01  -0.01    -0.03   0.02  -0.04
  14   1    -0.01  -0.08  -0.06    -0.00  -0.04  -0.01    -0.06  -0.00   0.07
  15   1    -0.03  -0.06   0.05    -0.01  -0.03   0.04    -0.03  -0.01   0.08
  16   1     0.05   0.05  -0.06     0.01   0.03  -0.02    -0.00  -0.01   0.08
  17   1    -0.02  -0.03  -0.06    -0.04  -0.02   0.12    -0.00   0.02   0.01
  18   1     0.01  -0.04   0.03     0.04  -0.01  -0.12     0.01   0.03  -0.13
  19   1     0.01  -0.01   0.04     0.05   0.00  -0.14     0.01   0.01  -0.11
  20   1     0.14   0.09   0.12     0.03   0.04   0.07    -0.03  -0.01   0.11
  21   1     0.07  -0.02  -0.04     0.01   0.01   0.01    -0.04  -0.00   0.04
  22   1    -0.02   0.02   0.01    -0.01   0.01   0.02    -0.05  -0.01   0.15
  23   1    -0.06   0.13   0.05    -0.03   0.07   0.04    -0.08   0.01   0.09
  24   8    -0.13   0.02  -0.12    -0.16  -0.02   0.46     0.09   0.00  -0.26
  25   6    -0.26  -0.02   0.15     0.03   0.01  -0.43     0.09   0.01   0.05
  26   1    -0.08  -0.07   0.05    -0.01   0.16  -0.19     0.07  -0.03   0.07
  27   1    -0.09   0.01   0.07     0.02   0.01  -0.19     0.04  -0.01  -0.02
  28   1    -0.08   0.04   0.06     0.06  -0.15  -0.18    -0.03   0.05   0.05
                      7                      8                      9
                        a                      a                      a 
 Frequencies --   164.2859               184.1162               204.0506
 Red. masses --    12.9680                 8.0285                 8.0490
 Frc consts  --     0.0000                 0.0000                 0.0000
 IR Inten    --     4.8667                 0.2951                 0.7274
 Raman Activ --     0.0000                 0.0000                 0.0000
 Depolar     --     0.0000                 0.0000                 0.0000
 Atom AN      X      Y      Z        X      Y      Z        X      Y      Z
   1   8     0.19  -0.03  -0.11     0.08   0.00   0.01    -0.08  -0.01   0.01
   2   8    -0.14  -0.09  -0.24     0.01  -0.21   0.06     0.12  -0.28   0.11
   3   8     0.47  -0.17  -0.23    -0.01  -0.01  -0.06    -0.15  -0.00   0.00
   4   7     0.16  -0.12   0.08     0.11  -0.02  -0.14    -0.13   0.03   0.03
   5   6    -0.03   0.17   0.07     0.08   0.21   0.01     0.07   0.17   0.12
   6   6     0.15  -0.01   0.21     0.04   0.09   0.00    -0.06   0.07   0.09
   7   6    -0.07   0.09  -0.04     0.01   0.01   0.13     0.09   0.04   0.02
   8   6    -0.05   0.07  -0.07     0.00  -0.05   0.33     0.21  -0.03  -0.17
   9   6    -0.20   0.06   0.13     0.01  -0.00  -0.07     0.06   0.02   0.01
  10   6    -0.09   0.03   0.01     0.05  -0.05   0.12     0.20  -0.05  -0.09
  11   6    -0.21   0.02   0.11    -0.01  -0.02  -0.01     0.09  -0.00  -0.10
  12   6     0.24  -0.04   0.01     0.03   0.03  -0.01    -0.08   0.02   0.01
  13   6    -0.15   0.00  -0.03     0.02  -0.06   0.08     0.16  -0.06  -0.05
  14   1    -0.03   0.08   0.07     0.07   0.09   0.04     0.04   0.08   0.07
  15   1    -0.04   0.08  -0.01     0.01   0.10  -0.05     0.01   0.08  -0.00
  16   1     0.05  -0.02   0.08    -0.01   0.02   0.03    -0.04   0.02   0.05
  17   1    -0.01   0.02  -0.04    -0.01  -0.02   0.15     0.08  -0.01  -0.08
  18   1    -0.08   0.02   0.06     0.01   0.01  -0.08     0.01   0.01   0.03
  19   1    -0.07   0.00   0.05    -0.00  -0.01  -0.03     0.01  -0.01  -0.03
  20   1     0.06  -0.01   0.00     0.02   0.01  -0.08    -0.05   0.00  -0.01
  21   1     0.05  -0.04   0.00     0.03  -0.00  -0.02    -0.04   0.02   0.00
  22   1    -0.01  -0.03  -0.08     0.03  -0.07   0.02     0.06  -0.09   0.05
  23   1     0.03  -0.06   0.03     0.06  -0.04  -0.04    -0.03  -0.02   0.01
  24   8    -0.15   0.03   0.18     0.00   0.11  -0.28     0.01   0.11   0.08
  25   6    -0.15   0.02  -0.04    -0.40  -0.01  -0.09    -0.37  -0.01  -0.10
  26   1    -0.11   0.01  -0.08     0.08  -0.03   0.19    -0.34  -0.10  -0.25
  27   1    -0.07   0.02   0.06    -0.09   0.08  -0.31    -0.23   0.07   0.26
  28   1     0.04  -0.01  -0.05    -0.42  -0.08   0.06     0.16   0.01  -0.12
                     10                     11                     12
                        a                      a                      a 
 Frequencies --   258.4433               283.0558               328.5737
 Red. masses --     7.8814                11.5729                 2.9952
 Frc consts  --     0.0000                 0.0000                 0.0000
 IR Inten    --     0.5880                 8.1831                 7.0141
 Raman Activ --     0.0000                 0.0000                 0.0000
 Depolar     --     0.0000                 0.0000                 0.0000
 Atom AN      X      Y      Z        X      Y      Z        X      Y      Z
   1   8    -0.07  -0.01   0.00    -0.06   0.02   0.02     0.14  -0.15  -0.14
   2   8     0.04  -0.19  -0.03    -0.12  -0.55  -0.10    -0.05  -0.07  -0.01
   3   8    -0.02  -0.01   0.04     0.10   0.03   0.08    -0.05   0.03   0.06
   4   7    -0.14   0.02   0.12     0.01   0.01   0.08    -0.07   0.10   0.07
   5   6    -0.01  -0.04  -0.00    -0.02  -0.30  -0.13     0.01  -0.01   0.04
   6   6    -0.02  -0.06   0.02    -0.01  -0.17  -0.16     0.04   0.05   0.03
   7   6     0.07   0.07  -0.19     0.02   0.09  -0.01    -0.00  -0.07   0.02
   8   6     0.17   0.05  -0.41    -0.00   0.08   0.17    -0.03  -0.04  -0.02
   9   6    -0.00   0.06   0.09    -0.01   0.09  -0.07    -0.01  -0.07   0.01
  10   6     0.11   0.02  -0.11     0.06   0.13   0.11    -0.02   0.03  -0.01
  11   6     0.00   0.04   0.03    -0.08   0.11   0.06    -0.00  -0.01  -0.00
  12   6    -0.03  -0.03   0.01     0.00  -0.07  -0.04     0.06  -0.00  -0.05
  13   6     0.08   0.01  -0.08    -0.04   0.07   0.08    -0.03   0.02  -0.02
  14   1    -0.05  -0.02  -0.00    -0.08  -0.14  -0.10     0.02  -0.01   0.00
  15   1     0.01  -0.03   0.01     0.06  -0.16   0.03    -0.01   0.00   0.02
  16   1    -0.01  -0.01  -0.00     0.01  -0.03  -0.10     0.01   0.01   0.01
  17   1     0.06   0.02  -0.13    -0.00   0.02   0.06    -0.02  -0.01  -0.01
  18   1    -0.02   0.01   0.10     0.00   0.03  -0.06    -0.00  -0.02   0.02
  19   1    -0.02   0.01   0.05    -0.01   0.04   0.02     0.02   0.00   0.00
  20   1    -0.04  -0.01   0.07     0.03  -0.01   0.09    -0.48  -0.16  -0.27
  21   1    -0.04   0.02   0.02     0.01  -0.02   0.03    -0.11   0.33   0.33
  22   1     0.04  -0.07   0.01     0.10  -0.21  -0.03     0.00  -0.03   0.00
  23   1    -0.06   0.03   0.03    -0.02   0.08   0.01     0.49  -0.15  -0.09
  24   8    -0.04   0.06   0.39     0.06   0.27  -0.10    -0.05   0.07   0.00
  25   6    -0.06   0.04   0.02     0.05   0.26   0.01     0.06   0.10   0.02
  26   1     0.21   0.12   0.23    -0.03   0.05  -0.04     0.02   0.05   0.01
  27   1     0.06   0.05  -0.37    -0.00   0.06   0.09     0.03   0.00   0.01
  28   1    -0.33  -0.14   0.08     0.08   0.12  -0.01     0.02   0.04   0.01
                     13                     14                     15
                        a                      a                      a 
 Frequencies --   335.8383               353.7750               372.1042
 Red. masses --    10.5918                10.7436                 9.9638
 Frc consts  --     0.0000                 0.0000                 0.0000
 IR Inten    --     5.7763               104.0692                26.8463
 Raman Activ --     0.0000                 0.0000                 0.0000
 Depolar     --     0.0000                 0.0000                 0.0000
 Atom AN      X      Y      Z        X      Y      Z        X      Y      Z
   1   8    -0.15  -0.02  -0.04     0.39  -0.10   0.11     0.31  -0.06   0.06
   2   8     0.13   0.21  -0.09     0.03  -0.01  -0.12    -0.13   0.04   0.08
   3   8     0.14   0.01   0.11    -0.21  -0.08  -0.04    -0.10  -0.00  -0.03
   4   7    -0.04   0.07   0.23    -0.44   0.03  -0.04    -0.12  -0.02  -0.16
   5   6    -0.01  -0.01  -0.14     0.03   0.04  -0.01     0.00  -0.28   0.03
   6   6    -0.04  -0.16  -0.09     0.16   0.08   0.10     0.09   0.03  -0.05
   7   6     0.05   0.24  -0.20     0.05  -0.04  -0.22     0.01   0.21   0.21
   8   6     0.06   0.16   0.06    -0.01  -0.04  -0.01     0.01   0.23   0.08
   9   6     0.04   0.24  -0.20     0.06  -0.03  -0.24    -0.08   0.20   0.24
  10   6     0.02  -0.08   0.11    -0.03  -0.00   0.09     0.02   0.03  -0.06
  11   6    -0.08   0.02   0.21    -0.05  -0.02   0.22    -0.03   0.05  -0.20
  12   6    -0.03  -0.12  -0.04     0.18   0.10   0.06     0.14   0.06  -0.01
  13   6    -0.00  -0.06   0.18    -0.05  -0.01   0.19    -0.03   0.02  -0.19
  14   1    -0.07   0.01  -0.02    -0.01   0.02   0.01    -0.08  -0.20  -0.13
  15   1     0.05  -0.02  -0.05    -0.03   0.02   0.01     0.07  -0.20   0.15
  16   1    -0.03  -0.02  -0.06     0.10  -0.02   0.06     0.07  -0.01  -0.02
  17   1     0.04   0.05   0.03    -0.01  -0.01   0.00     0.01   0.07   0.03
  18   1     0.01   0.09  -0.12     0.03  -0.01  -0.12    -0.06   0.08   0.12
  19   1    -0.08  -0.02   0.08    -0.01  -0.00   0.10    -0.02   0.01  -0.09
  20   1    -0.12  -0.06   0.06    -0.10  -0.02   0.08    -0.07  -0.02  -0.05
  21   1    -0.02   0.08   0.17    -0.17   0.10  -0.20    -0.07   0.07  -0.09
  22   1    -0.00   0.09  -0.10     0.03  -0.00  -0.12    -0.06   0.01   0.11
  23   1     0.12   0.07   0.01    -0.29  -0.02   0.04    -0.06  -0.05  -0.03
  24   8     0.16  -0.21  -0.04    -0.01   0.04  -0.05     0.14  -0.14   0.05
  25   6    -0.18  -0.31  -0.06     0.03   0.05   0.01    -0.13  -0.22  -0.05
  26   1    -0.09  -0.15  -0.04     0.00   0.01  -0.00    -0.06  -0.10  -0.02
  27   1    -0.11  -0.01   0.00     0.01  -0.00   0.02    -0.08   0.01  -0.02
  28   1    -0.05  -0.12  -0.03     0.02   0.03   0.00    -0.05  -0.11  -0.02
                     16                     17                     18
                        a                      a                      a 
 Frequencies --   406.8475               421.7982               435.9380
 Red. masses --     8.5755                 3.7252                 9.3790
 Frc consts  --     0.0000                 0.0000                 0.0000
 IR Inten    --    27.8833               177.5203                37.9597
 Raman Activ --     0.0000                 0.0000                 0.0000
 Depolar     --     0.0000                 0.0000                 0.0000
 Atom AN      X      Y      Z        X      Y      Z        X      Y      Z
   1   8    -0.06   0.06  -0.13    -0.01   0.01  -0.03    -0.00   0.00  -0.00
   2   8     0.14  -0.07  -0.01     0.13  -0.02  -0.22     0.02   0.01  -0.25
   3   8    -0.16   0.03  -0.16    -0.03   0.00  -0.03    -0.01   0.00   0.00
   4   7     0.25  -0.14  -0.14     0.03  -0.02  -0.01     0.01  -0.00  -0.00
   5   6    -0.22  -0.20   0.24    -0.08  -0.02   0.02     0.03  -0.01   0.02
   6   6    -0.03   0.20   0.25    -0.00   0.04   0.06    -0.00   0.00   0.00
   7   6    -0.07   0.06  -0.09    -0.02   0.01  -0.11     0.00  -0.01   0.09
   8   6     0.01   0.02  -0.10    -0.03  -0.03   0.11     0.08   0.03  -0.31
   9   6     0.09   0.10  -0.17     0.03   0.03  -0.10    -0.02  -0.02   0.11
  10   6    -0.00  -0.03   0.04     0.04  -0.02  -0.14    -0.11  -0.00   0.46
  11   6     0.01   0.06   0.13    -0.04   0.01   0.24     0.06   0.01  -0.25
  12   6    -0.09   0.17   0.08    -0.02   0.04   0.02    -0.00  -0.00  -0.00
  13   6     0.07  -0.01   0.19     0.08  -0.01  -0.08    -0.14  -0.01   0.45
  14   1    -0.16  -0.19  -0.08    -0.05  -0.03  -0.02     0.02  -0.01   0.00
  15   1    -0.07  -0.16   0.26    -0.03  -0.02   0.04     0.01  -0.01   0.01
  16   1     0.02   0.03   0.09     0.01   0.00   0.02    -0.00   0.00  -0.00
  17   1     0.02   0.01  -0.03    -0.01  -0.01   0.09     0.07   0.01  -0.30
  18   1     0.05   0.02  -0.09     0.02   0.00  -0.03    -0.00   0.00  -0.01
  19   1    -0.02   0.01   0.04    -0.04  -0.01   0.15     0.07   0.02  -0.28
  20   1     0.08   0.04  -0.19     0.01   0.01  -0.03     0.00   0.00  -0.00
  21   1     0.09  -0.09  -0.00     0.01  -0.01   0.00     0.00  -0.00   0.00
  22   1     0.11  -0.02  -0.23    -0.19  -0.04   0.83    -0.08  -0.01   0.29
  23   1     0.13  -0.17  -0.02     0.02  -0.03   0.00     0.00  -0.00  -0.00
  24   8     0.00  -0.04   0.01    -0.03  -0.00   0.01     0.06   0.01  -0.15
  25   6    -0.00  -0.04   0.00     0.01   0.01  -0.01    -0.00  -0.01  -0.01
  26   1     0.00  -0.01   0.01    -0.00   0.01  -0.01     0.01  -0.03   0.02
  27   1    -0.00  -0.01  -0.00     0.01  -0.01   0.01    -0.00   0.01  -0.01
  28   1    -0.01  -0.01   0.00     0.02   0.00  -0.01    -0.02   0.02   0.01
                     19                     20                     21
                        a                      a                      a 
 Frequencies --   463.0002               527.1256               531.9669
 Red. masses --    12.4485                12.4533                10.3824
 Frc consts  --     0.0000                 0.0000                 0.0000
 IR Inten    --    18.8930                42.4452                25.5892
 Raman Activ --     0.0000                 0.0000                 0.0000
 Depolar     --     0.0000                 0.0000                 0.0000
 Atom AN      X      Y      Z        X      Y      Z        X      Y      Z
   1   8    -0.09   0.10  -0.05     0.12   0.20  -0.12     0.06   0.07  -0.08
   2   8    -0.42   0.10  -0.15     0.06  -0.01   0.03    -0.08  -0.19  -0.00
   3   8    -0.17   0.05  -0.02    -0.42   0.13  -0.10    -0.18   0.04  -0.07
   4   7     0.10  -0.07   0.05     0.12  -0.25   0.29     0.04  -0.10   0.15
   5   6     0.29  -0.06   0.19     0.15  -0.02   0.00    -0.09   0.07  -0.10
   6   6     0.04  -0.02   0.04     0.13  -0.25   0.03     0.05  -0.09   0.05
   7   6     0.27  -0.11   0.08     0.11   0.14  -0.03    -0.08  -0.13  -0.15
   8   6     0.09   0.08  -0.04    -0.00   0.15   0.04    -0.23  -0.00   0.01
   9   6     0.05  -0.21  -0.19     0.04   0.13   0.08     0.13  -0.04   0.13
  10   6     0.09   0.19  -0.07    -0.10  -0.14   0.01    -0.15   0.20   0.05
  11   6    -0.07  -0.15   0.13     0.01  -0.16  -0.04     0.21   0.32   0.01
  12   6    -0.05   0.02  -0.07     0.06   0.13  -0.15     0.02   0.10  -0.00
  13   6    -0.31   0.08  -0.03     0.01  -0.16  -0.03     0.06   0.35  -0.03
  14   1     0.10  -0.03   0.04     0.01   0.05   0.07     0.02   0.11   0.07
  15   1     0.09  -0.02   0.05     0.08   0.02  -0.07    -0.08   0.10  -0.13
  16   1    -0.02  -0.00   0.04     0.07  -0.10   0.04     0.06  -0.05   0.02
  17   1    -0.06  -0.01  -0.01     0.05   0.06   0.02    -0.13  -0.02  -0.00
  18   1    -0.01  -0.03  -0.09    -0.04   0.07   0.02     0.10  -0.07   0.09
  19   1     0.05  -0.01   0.10    -0.04  -0.06  -0.03     0.13   0.12   0.03
  20   1     0.04  -0.00  -0.00     0.04  -0.09   0.12     0.01  -0.04   0.06
  21   1     0.04  -0.05   0.03     0.05  -0.07   0.10     0.02  -0.03   0.05
  22   1    -0.11   0.02  -0.01    -0.02   0.02  -0.01     0.12  -0.13   0.03
  23   1     0.03  -0.02   0.01     0.05   0.01   0.06     0.02   0.00   0.03
  24   8     0.28   0.06   0.12    -0.32  -0.02  -0.10     0.16  -0.16  -0.00
  25   6    -0.05  -0.04  -0.01     0.01   0.09   0.00     0.01  -0.29  -0.02
  26   1    -0.04  -0.06  -0.01     0.03   0.09   0.01    -0.02  -0.13  -0.02
  27   1    -0.07   0.08  -0.02     0.06  -0.07   0.02    -0.05  -0.01  -0.00
  28   1    -0.04  -0.08  -0.01     0.03   0.09   0.01    -0.02  -0.12  -0.01
                     22                     23                     24
                        a                      a                      a 
 Frequencies --   537.7531               591.3141               654.3666
 Red. masses --    12.0743                11.5805                12.0168
 Frc consts  --     0.0000                 0.0000                 0.0000
 IR Inten    --    14.7095                 4.3297                26.8815
 Raman Activ --     0.0000                 0.0000                 0.0000
 Depolar     --     0.0000                 0.0000                 0.0000
 Atom AN      X      Y      Z        X      Y      Z        X      Y      Z
   1   8    -0.06  -0.05   0.08    -0.26   0.00  -0.07     0.29  -0.07   0.26
   2   8    -0.08  -0.19  -0.07    -0.13  -0.01   0.04     0.00  -0.00   0.05
   3   8     0.16  -0.03   0.08     0.04  -0.13   0.05     0.08   0.28  -0.00
   4   7    -0.05   0.12  -0.13    -0.03   0.09  -0.08    -0.00  -0.06   0.01
   5   6     0.19   0.04   0.13     0.11   0.02   0.00    -0.03   0.02   0.24
   6   6    -0.04   0.09  -0.04     0.13   0.15   0.11    -0.26  -0.03  -0.01
   7   6     0.11   0.06   0.23     0.26   0.05  -0.51     0.01  -0.01  -0.08
   8   6    -0.16   0.28  -0.11    -0.01   0.10   0.10     0.02  -0.02  -0.13
   9   6     0.34   0.12  -0.07     0.09  -0.02   0.23     0.00  -0.01  -0.09
  10   6    -0.24  -0.00  -0.20    -0.12  -0.03   0.36    -0.10  -0.01   0.36
  11   6     0.22  -0.06   0.14     0.12  -0.17  -0.05    -0.04   0.03   0.10
  12   6    -0.02  -0.11  -0.02    -0.06  -0.03   0.16    -0.07  -0.15  -0.47
  13   6    -0.04   0.06   0.09    -0.01  -0.03  -0.26     0.09   0.03  -0.30
  14   1     0.10   0.00   0.02    -0.04  -0.05  -0.05    -0.03  -0.00   0.06
  15   1     0.06   0.01   0.03    -0.00  -0.03   0.09    -0.01  -0.00   0.08
  16   1    -0.08   0.06  -0.01     0.02   0.04   0.04    -0.23   0.05   0.03
  17   1    -0.04   0.08  -0.05    -0.02   0.02   0.10    -0.01  -0.01   0.01
  18   1     0.09   0.05  -0.07    -0.03   0.00   0.19    -0.01  -0.02   0.05
  19   1     0.08  -0.01   0.04     0.03  -0.05   0.04    -0.02   0.01   0.08
  20   1    -0.00   0.04  -0.04    -0.03   0.03  -0.06     0.06   0.04  -0.03
  21   1    -0.02   0.03  -0.04    -0.01   0.03  -0.05     0.01  -0.05   0.02
  22   1     0.05  -0.09   0.01    -0.03  -0.00   0.01     0.01  -0.00   0.01
  23   1    -0.03   0.01  -0.03    -0.03  -0.06   0.00     0.02  -0.00  -0.01
  24   8    -0.38  -0.19  -0.05    -0.03   0.01  -0.13     0.01  -0.00  -0.07
  25   6     0.01  -0.11   0.00    -0.00   0.03  -0.01     0.01  -0.01  -0.01
  26   1     0.03   0.03   0.01    -0.00   0.00  -0.01    -0.00  -0.01  -0.00
  27   1     0.06  -0.12  -0.00     0.00  -0.01   0.02     0.00  -0.01   0.01
  28   1     0.02   0.02   0.01     0.01   0.04  -0.00     0.00   0.01   0.00
                     25                     26                     27
                        a                      a                      a 
 Frequencies --   675.6875               694.6314               747.0377
 Red. masses --    11.4946                12.2659                12.3209
 Frc consts  --     0.0000                 0.0000                 0.0000
 IR Inten    --     9.2308                20.6677                54.8703
 Raman Activ --     0.0000                 0.0000                 0.0000
 Depolar     --     0.0000                 0.0000                 0.0000
 Atom AN      X      Y      Z        X      Y      Z        X      Y      Z
   1   8     0.09  -0.02   0.14    -0.21   0.25  -0.07    -0.06   0.31  -0.07
   2   8     0.00   0.00  -0.08     0.15   0.00   0.04    -0.05  -0.01  -0.01
   3   8     0.03   0.13   0.03    -0.13  -0.15   0.21    -0.14  -0.16   0.23
   4   7    -0.01  -0.02  -0.00     0.02   0.06  -0.07     0.01   0.04  -0.03
   5   6    -0.00   0.04   0.12     0.26  -0.02   0.15    -0.31   0.07  -0.05
   6   6    -0.09   0.02   0.04     0.25   0.05   0.04     0.07   0.05   0.07
   7   6     0.11   0.01  -0.40     0.04  -0.04   0.00    -0.20   0.02   0.07
   8   6    -0.06  -0.02   0.23     0.03  -0.12  -0.01    -0.11   0.05  -0.03
   9   6    -0.04  -0.03   0.24    -0.27  -0.06  -0.07     0.19   0.09   0.03
  10   6     0.10   0.02  -0.40    -0.01   0.01   0.02    -0.03  -0.01  -0.01
  11   6     0.08  -0.01  -0.24    -0.23   0.38  -0.03     0.15  -0.29   0.06
  12   6    -0.04  -0.13  -0.28     0.21  -0.28  -0.21     0.36  -0.31  -0.27
  13   6    -0.12  -0.02   0.46     0.08   0.13   0.01    -0.02  -0.11  -0.04
  14   1    -0.06  -0.01   0.01     0.05  -0.06  -0.02    -0.09   0.03   0.00
  15   1    -0.02  -0.01   0.08     0.07  -0.05   0.12    -0.15   0.04   0.01
  16   1    -0.14   0.04   0.04    -0.02   0.05   0.03    -0.03   0.04   0.01
  17   1    -0.04  -0.01   0.13    -0.01  -0.04  -0.00    -0.01   0.02  -0.05
  18   1    -0.01  -0.02   0.09    -0.05  -0.04  -0.02     0.06   0.03  -0.03
  19   1     0.03   0.00  -0.05    -0.06   0.11  -0.00     0.02  -0.09  -0.03
  20   1     0.02   0.03  -0.03    -0.02  -0.01  -0.00     0.01   0.02  -0.02
  21   1     0.00  -0.02  -0.00    -0.01   0.05  -0.05    -0.00   0.02  -0.03
  22   1    -0.00  -0.00  -0.01     0.05  -0.01   0.02    -0.03   0.01  -0.01
  23   1    -0.00  -0.03   0.00    -0.04  -0.03   0.01    -0.02  -0.03   0.01
  24   8    -0.01  -0.00   0.05    -0.18  -0.09  -0.05     0.22   0.09   0.06
  25   6    -0.00   0.00   0.00     0.01  -0.10  -0.00     0.00   0.10   0.01
  26   1    -0.00   0.01  -0.00     0.01   0.00   0.00    -0.02  -0.02  -0.00
  27   1    -0.00   0.00   0.00     0.03  -0.08   0.01    -0.04   0.10  -0.01
  28   1     0.00  -0.01  -0.00     0.01   0.00   0.00    -0.02  -0.02  -0.00
                     28                     29                     30
                        a                      a                      a 
 Frequencies --   806.6938               824.7103               851.7534
 Red. masses --    11.9313                 4.7557                 9.6286
 Frc consts  --     0.0000                 0.0000                 0.0000
 IR Inten    --   126.5075                64.2782               225.7549
 Raman Activ --     0.0000                 0.0000                 0.0000
 Depolar     --     0.0000                 0.0000                 0.0000
 Atom AN      X      Y      Z        X      Y      Z        X      Y      Z
   1   8     0.02   0.05  -0.03     0.05   0.08  -0.08     0.17   0.16  -0.16
   2   8    -0.49   0.09  -0.12     0.03  -0.00  -0.04     0.05  -0.00   0.03
   3   8    -0.02  -0.04   0.03    -0.04  -0.10   0.03    -0.06  -0.20   0.06
   4   7    -0.01  -0.02   0.01    -0.01   0.04  -0.06    -0.12   0.04  -0.05
   5   6    -0.10   0.05  -0.04    -0.03  -0.05   0.09     0.02  -0.03   0.14
   6   6    -0.07   0.00  -0.01    -0.15  -0.06  -0.08    -0.48  -0.07  -0.13
   7   6    -0.05   0.06   0.01    -0.02  -0.00   0.09     0.13   0.00  -0.16
   8   6     0.36  -0.39   0.06     0.03   0.03  -0.19     0.02   0.08   0.01
   9   6     0.22   0.20   0.05     0.04   0.03  -0.22    -0.09  -0.11   0.11
  10   6     0.21  -0.16   0.04    -0.03  -0.00   0.08     0.01   0.04  -0.01
  11   6     0.12   0.20   0.05     0.04   0.01  -0.25    -0.05   0.00   0.10
  12   6     0.08  -0.02   0.01     0.16   0.03   0.12     0.36   0.08   0.27
  13   6    -0.03   0.09  -0.00    -0.04  -0.02   0.19     0.02   0.02  -0.05
  14   1    -0.07  -0.01  -0.04     0.05   0.03   0.07    -0.00   0.01   0.06
  15   1     0.01  -0.03   0.03     0.01   0.02  -0.06     0.04   0.00  -0.02
  16   1    -0.02   0.00  -0.01    -0.03  -0.01  -0.04    -0.19   0.02  -0.05
  17   1     0.22  -0.06   0.06    -0.10  -0.01   0.38    -0.01   0.01   0.02
  18   1     0.12   0.01   0.04    -0.13  -0.04   0.51     0.03  -0.00  -0.23
  19   1     0.07   0.07   0.01    -0.13  -0.03   0.44     0.07   0.02  -0.21
  20   1     0.01   0.00   0.00     0.03   0.03  -0.01     0.12   0.14  -0.08
  21   1     0.00  -0.02   0.01     0.01  -0.03   0.03     0.02  -0.15   0.12
  22   1    -0.09   0.01  -0.02    -0.00   0.00   0.00     0.02  -0.01   0.01
  23   1     0.01   0.01  -0.00     0.04   0.07  -0.04     0.14   0.12  -0.09
  24   8    -0.22  -0.05  -0.06     0.02   0.00  -0.03    -0.05  -0.02  -0.01
  25   6    -0.02  -0.06  -0.01     0.00   0.00  -0.00    -0.00  -0.03  -0.00
  26   1     0.02   0.05   0.01    -0.01   0.00  -0.01     0.00   0.00   0.00
  27   1     0.06  -0.12   0.01    -0.01   0.01   0.01     0.01  -0.02   0.00
  28   1     0.02   0.05   0.01     0.01  -0.00  -0.00     0.00   0.00   0.00
                     31                     32                     33
                        a                      a                      a 
 Frequencies --   865.4258               892.9833               905.5878
 Red. masses --     3.4525                 6.9926                 3.3455
 Frc consts  --     0.0000                 0.0000                 0.0000
 IR Inten    --    12.0726                16.9516                 0.3393
 Raman Activ --     0.0000                 0.0000                 0.0000
 Depolar     --     0.0000                 0.0000                 0.0000
 Atom AN      X      Y      Z        X      Y      Z        X      Y      Z
   1   8    -0.03  -0.03   0.03     0.04   0.02  -0.01    -0.00  -0.00   0.01
   2   8    -0.01  -0.00  -0.00     0.06  -0.01   0.01    -0.01   0.00  -0.02
   3   8     0.01   0.03  -0.01     0.01  -0.02   0.01     0.00   0.01   0.00
   4   7     0.03  -0.00   0.01    -0.06  -0.26   0.19    -0.02   0.02   0.03
   5   6    -0.01   0.01  -0.03     0.07   0.41  -0.33    -0.01  -0.06  -0.03
   6   6     0.10   0.00   0.02    -0.11   0.19  -0.04     0.00   0.01   0.03
   7   6    -0.03   0.00   0.04     0.02   0.00   0.12    -0.00   0.00   0.03
   8   6     0.08  -0.00  -0.38     0.00   0.04  -0.04     0.04   0.01  -0.09
   9   6    -0.02   0.02   0.14    -0.03  -0.17  -0.03    -0.07  -0.01   0.30
  10   6    -0.01  -0.01   0.02    -0.01   0.06   0.01    -0.01  -0.01   0.08
  11   6    -0.03  -0.01   0.14     0.05  -0.07  -0.05     0.08   0.02  -0.29
  12   6    -0.07  -0.01  -0.04     0.06  -0.00   0.03    -0.00  -0.01  -0.02
  13   6    -0.01  -0.01   0.03    -0.02   0.04   0.01     0.00   0.00  -0.01
  14   1     0.01  -0.00  -0.02    -0.11  -0.19  -0.45     0.02   0.02   0.03
  15   1    -0.01  -0.00   0.01     0.07  -0.15   0.31    -0.01   0.02  -0.05
  16   1     0.03  -0.01   0.01    -0.16   0.03   0.14     0.01   0.01  -0.02
  17   1    -0.19  -0.03   0.75    -0.05  -0.01   0.03    -0.00   0.00   0.07
  18   1     0.05   0.02  -0.19    -0.01  -0.06   0.01     0.15   0.06  -0.62
  19   1     0.08   0.01  -0.35     0.05  -0.00   0.11    -0.14  -0.03   0.58
  20   1    -0.03  -0.04   0.02    -0.00  -0.09   0.11     0.01   0.05  -0.06
  21   1    -0.01   0.04  -0.02     0.00  -0.07   0.09     0.00  -0.01  -0.01
  22   1    -0.01  -0.00   0.01     0.03  -0.01   0.01    -0.00   0.00   0.01
  23   1    -0.03  -0.02   0.02     0.02   0.03   0.02    -0.01  -0.07   0.03
  24   8     0.02   0.01  -0.02    -0.03  -0.00  -0.01    -0.01  -0.00  -0.01
  25   6     0.00   0.01   0.00     0.00  -0.03  -0.00    -0.00  -0.00  -0.00
  26   1    -0.01   0.01  -0.01     0.00  -0.00  -0.00     0.00   0.00  -0.00
  27   1    -0.01   0.01   0.02     0.01  -0.02   0.00     0.00  -0.01   0.00
  28   1     0.01  -0.01  -0.01     0.00  -0.00   0.00     0.00   0.00  -0.00
                     34                     35                     36
                        a                      a                      a 
 Frequencies --   924.3006               958.7659              1014.5204
 Red. masses --     5.1100                 9.5096                 4.6825
 Frc consts  --     0.0000                 0.0000                 0.0000
 IR Inten    --    49.6152                12.9668               113.1668
 Raman Activ --     0.0000                 0.0000                 0.0000
 Depolar     --     0.0000                 0.0000                 0.0000
 Atom AN      X      Y      Z        X      Y      Z        X      Y      Z
   1   8     0.02   0.02   0.03     0.02   0.00  -0.02     0.00   0.03  -0.06
   2   8     0.01   0.00   0.00    -0.07  -0.01  -0.02     0.01  -0.00   0.00
   3   8     0.00   0.01   0.02     0.01  -0.03  -0.00    -0.02  -0.03  -0.02
   4   7    -0.08  -0.00   0.32    -0.05  -0.07   0.09     0.39   0.03   0.07
   5   6     0.04  -0.19  -0.32     0.38  -0.01   0.03    -0.03   0.07   0.11
   6   6    -0.12   0.19   0.10    -0.07   0.09  -0.06    -0.19  -0.13  -0.16
   7   6     0.06  -0.00   0.06    -0.16  -0.05  -0.09     0.00   0.02  -0.03
   8   6     0.07   0.09   0.01    -0.26  -0.29  -0.06    -0.01  -0.03   0.00
   9   6    -0.02  -0.04  -0.07     0.13   0.36   0.06    -0.00  -0.02   0.01
  10   6     0.04   0.02  -0.00    -0.19  -0.17  -0.06    -0.00   0.01   0.00
  11   6    -0.04   0.02   0.02    -0.05   0.12  -0.01     0.01  -0.04   0.00
  12   6     0.04  -0.05  -0.05     0.02   0.04   0.08     0.07   0.10   0.12
  13   6    -0.01   0.00   0.01     0.07  -0.11   0.01    -0.01   0.02  -0.01
  14   1     0.11   0.03  -0.01     0.21  -0.06  -0.08    -0.08   0.01   0.03
  15   1     0.01   0.03  -0.22     0.12  -0.03   0.05     0.08  -0.03   0.02
  16   1    -0.02   0.12  -0.11    -0.13   0.06   0.03    -0.29   0.14  -0.14
  17   1     0.03   0.03   0.04    -0.12  -0.10  -0.05    -0.01  -0.01  -0.02
  18   1    -0.04  -0.02   0.11     0.08   0.08  -0.00     0.00  -0.00  -0.02
  19   1     0.02   0.02  -0.06    -0.22  -0.05  -0.06     0.02  -0.00   0.00
  20   1     0.09   0.26  -0.35     0.02   0.03  -0.03    -0.26  -0.26   0.07
  21   1     0.02  -0.12  -0.08     0.01  -0.06   0.02    -0.04   0.33  -0.29
  22   1     0.00   0.00  -0.00    -0.06   0.03  -0.02     0.01  -0.01   0.00
  23   1    -0.05  -0.52   0.21     0.01  -0.06   0.03    -0.31  -0.28   0.20
  24   8    -0.05  -0.00  -0.01     0.22  -0.06   0.05    -0.01   0.02   0.00
  25   6    -0.01  -0.03  -0.00     0.03   0.23   0.02     0.01  -0.02   0.00
  26   1     0.01   0.01   0.00    -0.03  -0.04  -0.01     0.00  -0.00   0.00
  27   1     0.01  -0.04   0.00    -0.08   0.19  -0.01     0.00  -0.01  -0.00
  28   1     0.01   0.01   0.00    -0.04  -0.04  -0.01     0.00  -0.00   0.00
                     37                     38                     39
                        a                      a                      a 
 Frequencies --  1040.5178              1051.2529              1104.9098
 Red. masses --    10.9586                 6.1055                 7.6436
 Frc consts  --     0.0000                 0.0000                 0.0000
 IR Inten    --    37.9268                11.8271                77.1592
 Raman Activ --     0.0000                 0.0000                 0.0000
 Depolar     --     0.0000                 0.0000                 0.0000
 Atom AN      X      Y      Z        X      Y      Z        X      Y      Z
   1   8    -0.00  -0.00   0.00    -0.01   0.01   0.00    -0.01  -0.00   0.01
   2   8    -0.09  -0.01  -0.02    -0.03  -0.01  -0.01     0.07   0.12   0.02
   3   8    -0.00   0.01  -0.00     0.03  -0.03   0.03     0.02  -0.02   0.02
   4   7     0.02   0.04  -0.01     0.06  -0.30   0.03    -0.03  -0.11   0.06
   5   6    -0.07   0.05  -0.02    -0.10  -0.25   0.00    -0.04   0.00   0.12
   6   6    -0.00  -0.07   0.02    -0.09   0.43  -0.11     0.00   0.17  -0.18
   7   6     0.08   0.01   0.04     0.07  -0.08  -0.06    -0.00   0.08  -0.02
   8   6     0.02   0.23   0.01     0.07   0.17   0.04     0.07  -0.23   0.01
   9   6    -0.05  -0.23  -0.03    -0.01   0.02   0.01    -0.06   0.08  -0.01
  10   6    -0.08  -0.30  -0.03     0.04  -0.03   0.01     0.02   0.13   0.01
  11   6     0.03   0.25   0.02    -0.03   0.11   0.01     0.03  -0.24  -0.00
  12   6     0.00   0.00  -0.01     0.04  -0.03  -0.01    -0.00  -0.03  -0.01
  13   6     0.08  -0.05   0.02     0.02  -0.05   0.00    -0.15   0.23  -0.02
  14   1    -0.11   0.01   0.01     0.43  -0.02  -0.01     0.00   0.01   0.04
  15   1     0.02  -0.02   0.01    -0.37   0.16  -0.06     0.02   0.01  -0.01
  16   1     0.02  -0.02  -0.01    -0.06   0.09   0.05     0.18   0.00  -0.13
  17   1     0.14   0.11   0.04     0.11   0.08   0.02     0.02  -0.06   0.00
  18   1     0.11  -0.16   0.02    -0.02   0.03  -0.02    -0.26   0.22  -0.05
  19   1     0.17   0.13   0.05    -0.02   0.03  -0.01     0.13  -0.02   0.03
  20   1    -0.01   0.01  -0.02    -0.10  -0.25   0.23    -0.00  -0.02   0.01
  21   1    -0.00   0.02  -0.02    -0.00   0.04   0.04     0.01  -0.04   0.03
  22   1    -0.09   0.04  -0.02    -0.07   0.04  -0.02     0.44  -0.23   0.10
  23   1    -0.01  -0.02   0.01    -0.04   0.13  -0.02     0.00  -0.04   0.02
  24   8     0.13  -0.47   0.01    -0.00  -0.02  -0.00    -0.01  -0.37  -0.02
  25   6    -0.10   0.50  -0.00    -0.04   0.01  -0.01    -0.05   0.25   0.00
  26   1    -0.04   0.03   0.00     0.01   0.02   0.01    -0.02  -0.00  -0.00
  27   1    -0.06   0.18  -0.01     0.01  -0.03   0.00    -0.03   0.08  -0.00
  28   1    -0.03   0.03  -0.02     0.01   0.03  -0.00    -0.02  -0.01  -0.01
                     40                     41                     42
                        a                      a                      a 
 Frequencies --  1116.4351              1117.3653              1137.8576
 Red. masses --     7.9697                 3.7117                 6.5901
 Frc consts  --     0.0000                 0.0000                 0.0000
 IR Inten    --    26.3435                 2.9028               401.9611
 Raman Activ --     0.0000                 0.0000                 0.0000
 Depolar     --     0.0000                 0.0000                 0.0000
 Atom AN      X      Y      Z        X      Y      Z        X      Y      Z
   1   8    -0.02  -0.01   0.01     0.00   0.00  -0.00    -0.00  -0.01   0.00
   2   8    -0.04  -0.04  -0.01     0.00  -0.00   0.00    -0.25   0.23  -0.05
   3   8     0.03  -0.04   0.03    -0.00   0.00  -0.00    -0.00   0.01  -0.01
   4   7    -0.08  -0.18   0.17     0.00   0.00  -0.00    -0.00   0.01  -0.00
   5   6    -0.06   0.17   0.33     0.00  -0.00  -0.01     0.06  -0.01  -0.00
   6   6     0.06   0.24  -0.48    -0.00  -0.00   0.01     0.02  -0.03   0.02
   7   6    -0.03   0.02  -0.04     0.00  -0.00  -0.00    -0.06   0.02  -0.01
   8   6    -0.07   0.06  -0.02    -0.00  -0.00   0.00    -0.11   0.12  -0.02
   9   6     0.00  -0.08   0.01     0.00   0.00   0.00    -0.03  -0.16  -0.02
  10   6    -0.04  -0.09  -0.01     0.00   0.00   0.00    -0.08  -0.32  -0.04
  11   6     0.01   0.06   0.01    -0.00   0.00   0.00    -0.04  -0.02  -0.01
  12   6    -0.02  -0.04  -0.01     0.00   0.00   0.00    -0.00   0.01   0.01
  13   6     0.08  -0.07   0.01    -0.00   0.00  -0.00     0.22   0.04   0.06
  14   1    -0.14   0.03   0.07     0.00  -0.00  -0.00     0.03  -0.00  -0.01
  15   1     0.12  -0.02   0.08    -0.00   0.00  -0.00     0.00  -0.00   0.01
  16   1     0.40  -0.02  -0.31    -0.01  -0.00   0.01    -0.06   0.02   0.02
  17   1     0.03   0.04   0.01     0.00  -0.00  -0.02     0.21   0.13   0.06
  18   1     0.12  -0.12   0.01    -0.00   0.00  -0.00     0.07  -0.11   0.01
  19   1     0.01   0.02  -0.00    -0.00  -0.00  -0.00    -0.20  -0.08  -0.05
  20   1     0.01   0.01  -0.04    -0.00  -0.00   0.00     0.01   0.01  -0.00
  21   1     0.03  -0.09   0.04    -0.00   0.00  -0.00    -0.00   0.01  -0.00
  22   1    -0.14   0.07  -0.03     0.00   0.00  -0.00     0.53  -0.30   0.12
  23   1    -0.00  -0.13   0.06    -0.00   0.00  -0.00     0.01   0.01  -0.01
  24   8     0.02   0.19   0.01     0.06   0.01  -0.21     0.16   0.21   0.05
  25   6     0.04  -0.12   0.01    -0.11  -0.02   0.41    -0.08  -0.11  -0.02
  26   1     0.01  -0.00  -0.00    -0.15   0.56  -0.19     0.04   0.10   0.03
  27   1    -0.01   0.00  -0.00     0.06   0.01  -0.22     0.04  -0.12   0.01
  28   1     0.01  -0.02   0.00     0.23  -0.53  -0.14     0.04   0.10   0.00
                     43                     44                     45
                        a                      a                      a 
 Frequencies --  1149.0570              1149.4975              1160.4132
 Red. masses --     4.9966                 6.4434                 5.2418
 Frc consts  --     0.0000                 0.0000                 0.0000
 IR Inten    --    38.8708                50.6263               113.2481
 Raman Activ --     0.0000                 0.0000                 0.0000
 Depolar     --     0.0000                 0.0000                 0.0000
 Atom AN      X      Y      Z        X      Y      Z        X      Y      Z
   1   8     0.01   0.00  -0.01     0.03  -0.00  -0.03    -0.00   0.01   0.00
   2   8    -0.04   0.01  -0.01     0.05  -0.03   0.01     0.08  -0.06   0.02
   3   8    -0.00  -0.00  -0.01    -0.00  -0.01  -0.03     0.00  -0.00   0.01
   4   7    -0.07  -0.01   0.01    -0.16  -0.03   0.08     0.04   0.02  -0.03
   5   6     0.04  -0.05   0.01    -0.05   0.03   0.10     0.15  -0.04   0.00
   6   6     0.18  -0.06  -0.05     0.45  -0.16  -0.29    -0.12   0.05   0.11
   7   6    -0.09   0.08  -0.00    -0.06  -0.03   0.02    -0.20   0.11  -0.07
   8   6    -0.01  -0.02  -0.00    -0.01   0.01  -0.00    -0.18  -0.08  -0.05
   9   6    -0.12  -0.03  -0.04     0.01   0.05  -0.00    -0.08   0.03  -0.02
  10   6    -0.11  -0.19  -0.04     0.05   0.06   0.01    -0.06  -0.16  -0.02
  11   6     0.07  -0.03   0.02     0.01  -0.01   0.00     0.05  -0.05   0.01
  12   6    -0.04   0.04   0.05    -0.09   0.08   0.12     0.02  -0.02  -0.03
  13   6     0.07   0.00   0.02    -0.06   0.01  -0.02    -0.04   0.03  -0.01
  14   1     0.04   0.00   0.02    -0.03   0.01   0.04     0.09  -0.02  -0.01
  15   1    -0.09   0.02   0.03    -0.27   0.07   0.15     0.18  -0.05  -0.06
  16   1    -0.23   0.12   0.00    -0.44   0.22  -0.06     0.10  -0.05   0.03
  17   1     0.25   0.09   0.06    -0.02  -0.00  -0.01     0.12   0.04   0.03
  18   1    -0.21   0.13  -0.03    -0.01   0.02   0.00    -0.19   0.14  -0.03
  19   1     0.37   0.13   0.10     0.04   0.01   0.01     0.50   0.18   0.13
  20   1     0.04   0.04  -0.01     0.10   0.13  -0.08    -0.02  -0.03   0.03
  21   1    -0.00  -0.03   0.01    -0.00  -0.09   0.02     0.00   0.01   0.00
  22   1     0.01  -0.01   0.00    -0.06   0.03  -0.01    -0.14   0.08  -0.03
  23   1     0.04  -0.01  -0.01     0.08  -0.07   0.00    -0.01   0.02  -0.01
  24   8    -0.16   0.22  -0.03     0.13  -0.09   0.03     0.26   0.12   0.07
  25   6     0.31  -0.11   0.08    -0.20   0.04  -0.05    -0.22  -0.07  -0.06
  26   1    -0.06  -0.22  -0.06     0.04   0.14   0.04     0.07   0.18   0.06
  27   1    -0.17   0.38  -0.03     0.11  -0.24   0.02     0.12  -0.29   0.02
  28   1    -0.07  -0.23   0.00     0.05   0.15  -0.00     0.08   0.19  -0.00
                     46                     47                     48
                        a                      a                      a 
 Frequencies --  1189.1445              1207.1320              1251.4011
 Red. masses --     4.0920                 5.5151                 4.2990
 Frc consts  --     0.0000                 0.0000                 0.0000
 IR Inten    --    18.9105               109.3251               190.8395
 Raman Activ --     0.0000                 0.0000                 0.0000
 Depolar     --     0.0000                 0.0000                 0.0000
 Atom AN      X      Y      Z        X      Y      Z        X      Y      Z
   1   8    -0.01  -0.00   0.00    -0.00   0.00  -0.00     0.14   0.10  -0.06
   2   8    -0.03   0.01  -0.01     0.20  -0.04   0.05     0.04   0.02   0.01
   3   8    -0.00  -0.01   0.00    -0.00  -0.00  -0.00     0.04  -0.11   0.08
   4   7     0.06   0.23   0.06    -0.00   0.01   0.01     0.04   0.20  -0.03
   5   6    -0.04   0.17   0.11     0.10  -0.01   0.07     0.09  -0.14  -0.06
   6   6    -0.12  -0.32  -0.16     0.02  -0.05   0.02     0.01   0.16  -0.25
   7   6     0.02  -0.08  -0.04    -0.34   0.06  -0.11    -0.01   0.08   0.04
   8   6     0.02   0.04   0.02     0.06  -0.00   0.02     0.00  -0.01  -0.00
   9   6    -0.02   0.04  -0.01     0.01   0.02   0.01     0.02   0.03   0.01
  10   6    -0.01   0.01  -0.00     0.01   0.22   0.01     0.04  -0.06   0.00
  11   6     0.04   0.02   0.01    -0.05  -0.15  -0.02    -0.08  -0.02  -0.02
  12   6     0.02   0.00  -0.02    -0.01   0.01   0.00    -0.16  -0.02   0.01
  13   6     0.04  -0.02   0.01    -0.31   0.08  -0.08    -0.09  -0.01  -0.02
  14   1     0.37  -0.15  -0.27     0.23  -0.04  -0.06    -0.22   0.09   0.17
  15   1    -0.35   0.08   0.26     0.10  -0.04   0.01    -0.07   0.02  -0.02
  16   1     0.25  -0.34   0.15    -0.01  -0.01   0.01    -0.07  -0.24   0.51
  17   1     0.05   0.03   0.00     0.45   0.18   0.11    -0.07  -0.03  -0.02
  18   1    -0.12   0.10  -0.02     0.41  -0.33   0.07     0.13  -0.10   0.02
  19   1     0.01   0.01   0.00    -0.02  -0.04  -0.01     0.10   0.04   0.03
  20   1    -0.01   0.11  -0.13     0.01   0.01  -0.01    -0.21  -0.12   0.03
  21   1     0.02  -0.01  -0.03    -0.00   0.01  -0.01     0.14  -0.31   0.17
  22   1    -0.00  -0.00  -0.00     0.02   0.01   0.01     0.07  -0.03   0.02
  23   1    -0.08  -0.18   0.09     0.00   0.01  -0.00    -0.16  -0.15   0.09
  24   8     0.00   0.00   0.00    -0.04  -0.07  -0.01    -0.01   0.02  -0.00
  25   6    -0.00  -0.00  -0.00     0.01   0.01   0.00     0.02  -0.01   0.00
  26   1     0.00   0.00   0.00     0.00  -0.03   0.01    -0.01  -0.01  -0.01
  27   1    -0.00   0.00  -0.00    -0.03   0.06  -0.01    -0.00   0.01  -0.00
  28   1     0.00   0.00   0.00     0.01  -0.03  -0.01    -0.01  -0.01   0.00
                     49                     50                     51
                        a                      a                      a 
 Frequencies --  1258.8540              1286.6057              1288.7561
 Red. masses --     3.5403                 8.9167                10.8144
 Frc consts  --     0.0000                 0.0000                 0.0000
 IR Inten    --    41.7254                60.7557               539.8141
 Raman Activ --     0.0000                 0.0000                 0.0000
 Depolar     --     0.0000                 0.0000                 0.0000
 Atom AN      X      Y      Z        X      Y      Z        X      Y      Z
   1   8     0.02   0.02  -0.01    -0.26  -0.21   0.11    -0.18  -0.15   0.08
   2   8     0.05  -0.11   0.01     0.15  -0.00   0.04    -0.18   0.02  -0.04
   3   8     0.00  -0.01   0.01    -0.05   0.19  -0.13    -0.03   0.13  -0.09
   4   7     0.01   0.04  -0.02     0.02  -0.08   0.07     0.01  -0.03   0.05
   5   6     0.08   0.00  -0.07     0.14  -0.06  -0.09     0.21  -0.09   0.00
   6   6    -0.05   0.04  -0.02    -0.10   0.04  -0.10    -0.02   0.09  -0.14
   7   6     0.07  -0.16   0.04     0.15   0.07   0.08    -0.34  -0.08  -0.07
   8   6    -0.07  -0.09  -0.02    -0.08  -0.09  -0.03     0.12   0.12   0.03
   9   6     0.12  -0.13   0.02     0.18   0.04   0.04    -0.29   0.04  -0.07
  10   6    -0.18   0.10  -0.04    -0.01  -0.17  -0.01     0.03   0.28   0.02
  11   6     0.07   0.04   0.02    -0.24   0.02  -0.06     0.32  -0.07   0.07
  12   6    -0.02  -0.01   0.00     0.35   0.01   0.03     0.24   0.01   0.03
  13   6     0.02   0.22   0.02    -0.24   0.07  -0.06     0.30  -0.16   0.07
  14   1    -0.26   0.06   0.10    -0.23   0.08   0.13    -0.14   0.06   0.13
  15   1    -0.04  -0.01   0.05    -0.30   0.07   0.14     0.02  -0.02   0.02
  16   1     0.01  -0.03   0.04     0.05  -0.10   0.11    -0.03  -0.12   0.24
  17   1     0.51   0.18   0.14     0.02  -0.01   0.01    -0.02   0.02  -0.00
  18   1    -0.30   0.24  -0.05     0.11  -0.03   0.03    -0.05  -0.03  -0.01
  19   1    -0.36  -0.14  -0.09     0.09   0.07   0.02    -0.01  -0.06  -0.00
  20   1    -0.05  -0.04   0.02     0.14   0.10  -0.03     0.08   0.05   0.01
  21   1     0.03  -0.07   0.05    -0.09   0.22  -0.12    -0.04   0.12  -0.06
  22   1    -0.21   0.11  -0.05     0.05  -0.01   0.01    -0.03   0.00  -0.01
  23   1    -0.04  -0.03   0.02     0.08   0.04  -0.02     0.05  -0.01  -0.00
  24   8     0.07  -0.02   0.02     0.03   0.07   0.01    -0.04  -0.10  -0.02
  25   6    -0.05  -0.01  -0.01     0.02  -0.03   0.00    -0.03   0.04  -0.00
  26   1     0.02   0.02   0.03     0.01   0.01   0.00    -0.01  -0.02  -0.00
  27   1    -0.02   0.01  -0.00    -0.02   0.03  -0.00     0.03  -0.05   0.00
  28   1     0.03   0.03  -0.01     0.01   0.01   0.00    -0.01  -0.02  -0.01
                     52                     53                     54
                        a                      a                      a 
 Frequencies --  1314.3668              1326.8160              1368.5066
 Red. masses --     4.5007                 8.5171                10.3183
 Frc consts  --     0.0000                 0.0000                 0.0000
 IR Inten    --   143.1698               525.5023                29.3502
 Raman Activ --     0.0000                 0.0000                 0.0000
 Depolar     --     0.0000                 0.0000                 0.0000
 Atom AN      X      Y      Z        X      Y      Z        X      Y      Z
   1   8    -0.06  -0.03   0.01     0.24   0.24  -0.14    -0.02  -0.01   0.01
   2   8     0.02  -0.03   0.00    -0.00   0.01  -0.00     0.08   0.05   0.02
   3   8     0.01  -0.02   0.01     0.09  -0.31   0.22    -0.00   0.01  -0.01
   4   7    -0.01  -0.04   0.11     0.02  -0.15   0.09    -0.00   0.00   0.02
   5   6    -0.36   0.00   0.13     0.17  -0.04  -0.07    -0.16   0.06   0.01
   6   6     0.14   0.08  -0.21    -0.12   0.03  -0.02     0.02   0.02  -0.02
   7   6     0.11   0.09  -0.01    -0.04  -0.03   0.01     0.20  -0.43   0.02
   8   6    -0.07  -0.05  -0.01     0.03   0.01   0.01     0.24   0.02   0.06
   9   6     0.09  -0.11   0.02    -0.03   0.04  -0.01    -0.09   0.28  -0.00
  10   6     0.01  -0.08   0.00    -0.02   0.03  -0.01    -0.38   0.11  -0.09
  11   6    -0.04   0.00  -0.01     0.02   0.00   0.00     0.07   0.18   0.03
  12   6     0.02   0.04  -0.01    -0.42   0.07  -0.09     0.02  -0.00   0.00
  13   6     0.00   0.14   0.01    -0.01  -0.05  -0.00    -0.23  -0.38  -0.07
  14   1     0.19  -0.06  -0.09    -0.14   0.05   0.09    -0.08  -0.01  -0.02
  15   1     0.38  -0.08  -0.27    -0.15   0.02   0.10     0.14  -0.04  -0.07
  16   1    -0.14  -0.17   0.45     0.08  -0.08   0.05    -0.03  -0.01   0.05
  17   1     0.02   0.00  -0.01     0.01   0.00   0.01     0.11   0.02   0.03
  18   1    -0.07   0.05  -0.02     0.02  -0.01   0.01     0.03   0.04   0.01
  19   1    -0.09  -0.03  -0.03     0.03   0.01   0.01     0.10   0.09   0.03
  20   1     0.16   0.13  -0.01     0.23   0.15  -0.03    -0.01   0.00  -0.01
  21   1    -0.07   0.22  -0.16    -0.14   0.43  -0.21     0.01  -0.02  -0.04
  22   1    -0.07   0.04  -0.02     0.02  -0.01   0.01     0.18  -0.09   0.04
  23   1     0.13  -0.01  -0.02     0.13   0.07  -0.04     0.02   0.02  -0.01
  24   8     0.00   0.00   0.00     0.00   0.00   0.00     0.10   0.08   0.03
  25   6     0.01  -0.00   0.00    -0.00  -0.00  -0.00    -0.02  -0.10  -0.01
  26   1     0.00  -0.00   0.00     0.00   0.00   0.00     0.03   0.13   0.00
  27   1    -0.01   0.01  -0.00     0.00  -0.01   0.00    -0.06   0.08  -0.01
  28   1     0.00   0.00   0.00    -0.00  -0.00  -0.00     0.03   0.13   0.02
                     55                     56                     57
                        a                      a                      a 
 Frequencies --  1393.2022              1393.8096              1398.8538
 Red. masses --     2.2393                 2.5494                 1.9265
 Frc consts  --     0.0000                 0.0000                 0.0000
 IR Inten    --    84.0215                70.4394               109.1447
 Raman Activ --     0.0000                 0.0000                 0.0000
 Depolar     --     0.0000                 0.0000                 0.0000
 Atom AN      X      Y      Z        X      Y      Z        X      Y      Z
   1   8    -0.01   0.01   0.02    -0.00   0.02   0.01    -0.01  -0.01  -0.01
   2   8     0.01   0.02   0.00    -0.02  -0.02  -0.01    -0.00  -0.01  -0.00
   3   8     0.00  -0.01   0.01     0.00  -0.01   0.01     0.00  -0.00   0.00
   4   7     0.01   0.02   0.18     0.01   0.01   0.17     0.14  -0.19   0.08
   5   6     0.00   0.01   0.01     0.04  -0.02   0.00    -0.01  -0.01   0.02
   6   6    -0.00   0.01  -0.00    -0.00   0.00   0.00     0.06   0.01  -0.03
   7   6     0.01  -0.08   0.00    -0.03   0.11   0.00     0.02   0.02   0.01
   8   6    -0.02   0.02  -0.00    -0.00  -0.02  -0.00     0.00  -0.03  -0.00
   9   6     0.03   0.03   0.01    -0.04  -0.04  -0.01    -0.03   0.01  -0.01
  10   6    -0.01  -0.01  -0.00     0.04   0.01   0.01    -0.04   0.01  -0.01
  11   6    -0.03   0.03  -0.01     0.03  -0.06   0.00     0.02  -0.02   0.00
  12   6    -0.00   0.00  -0.01    -0.01   0.00  -0.01     0.01   0.01   0.01
  13   6    -0.03  -0.06  -0.01     0.07   0.09   0.02     0.02   0.02   0.01
  14   1    -0.04  -0.01  -0.01    -0.00  -0.01  -0.00    -0.02  -0.03  -0.03
  15   1     0.00   0.01  -0.01    -0.06   0.03   0.00     0.00   0.02  -0.05
  16   1     0.00  -0.01   0.02     0.01  -0.01   0.00    -0.03  -0.00   0.05
  17   1     0.06   0.03   0.02    -0.06  -0.03  -0.02     0.01  -0.00   0.00
  18   1    -0.01   0.03  -0.00     0.01  -0.03   0.00    -0.00  -0.01   0.00
  19   1     0.02   0.02   0.01    -0.02  -0.03  -0.01     0.00  -0.01  -0.00
  20   1    -0.25  -0.07  -0.18    -0.24  -0.06  -0.19    -0.12   0.15  -0.58
  21   1     0.07  -0.25  -0.49     0.06  -0.22  -0.44    -0.02   0.14   0.28
  22   1     0.04  -0.02   0.01    -0.06   0.03  -0.01    -0.01   0.01  -0.00
  23   1     0.19   0.23  -0.08     0.14   0.24  -0.07    -0.49   0.45   0.04
  24   8    -0.01   0.09   0.00    -0.00  -0.10  -0.00     0.01   0.01   0.00
  25   6    -0.03   0.21   0.00     0.04  -0.22  -0.00    -0.01   0.01  -0.00
  26   1    -0.02  -0.34   0.07     0.03   0.36  -0.08     0.00  -0.02   0.01
  27   1     0.20  -0.30   0.04    -0.21   0.33  -0.04     0.01  -0.02   0.00
  28   1     0.02  -0.34  -0.11    -0.02   0.36   0.11     0.01  -0.02  -0.01
                     58                     59                     60
                        a                      a                      a 
 Frequencies --  1435.0765              1458.0028              1471.0746
 Red. masses --    10.3831                 1.5368                 2.0706
 Frc consts  --     0.0000                 0.0000                 0.0000
 IR Inten    --    58.5889                 7.5909                59.3246
 Raman Activ --     0.0000                 0.0000                 0.0000
 Depolar     --     0.0000                 0.0000                 0.0000
 Atom AN      X      Y      Z        X      Y      Z        X      Y      Z
   1   8    -0.00  -0.00  -0.00     0.00   0.00  -0.00     0.00   0.00  -0.00
   2   8    -0.01   0.07   0.00    -0.00   0.00  -0.00    -0.04   0.02  -0.01
   3   8     0.00  -0.00   0.00     0.00   0.00  -0.00     0.00  -0.00   0.00
   4   7     0.01  -0.02   0.01     0.00   0.00  -0.00    -0.00   0.00  -0.00
   5   6     0.06   0.06   0.02     0.00   0.00   0.00    -0.02   0.01  -0.01
   6   6     0.01   0.01  -0.01     0.00  -0.00  -0.00     0.00  -0.00   0.00
   7   6    -0.29  -0.33  -0.08    -0.00  -0.00   0.00     0.03  -0.01   0.01
   8   6    -0.18   0.25  -0.03    -0.00   0.00   0.00    -0.08  -0.02  -0.02
   9   6     0.34  -0.06   0.08     0.00  -0.00  -0.00     0.03   0.02   0.01
  10   6     0.48   0.03   0.12     0.01   0.00  -0.00     0.08   0.08   0.02
  11   6    -0.20   0.16  -0.04    -0.00  -0.00  -0.00    -0.08  -0.02  -0.02
  12   6    -0.00   0.00   0.00    -0.00   0.00   0.00    -0.01   0.00  -0.00
  13   6    -0.12  -0.22  -0.04     0.00  -0.00   0.00     0.09  -0.06   0.02
  14   1    -0.06   0.00   0.01    -0.00  -0.00  -0.00     0.01   0.02   0.02
  15   1     0.13  -0.05  -0.00    -0.00   0.00  -0.00     0.01  -0.02   0.02
  16   1    -0.01  -0.00   0.01    -0.00   0.00   0.00    -0.00  -0.00   0.00
  17   1     0.03   0.11   0.02     0.00   0.00  -0.02    -0.02   0.00  -0.00
  18   1    -0.17   0.20  -0.03     0.00   0.00  -0.00     0.01   0.00   0.00
  19   1     0.03   0.09   0.01     0.00   0.00   0.00     0.05   0.02   0.01
  20   1    -0.01   0.02  -0.05     0.00  -0.00   0.00    -0.00  -0.00   0.00
  21   1    -0.00   0.01   0.02     0.00  -0.00   0.00     0.00  -0.00   0.00
  22   1     0.10  -0.05   0.02    -0.00  -0.00   0.00     0.01  -0.01   0.00
  23   1    -0.03   0.03   0.00    -0.00  -0.00   0.00    -0.00  -0.00   0.00
  24   8    -0.11  -0.07  -0.03     0.00   0.00  -0.03    -0.07  -0.02  -0.02
  25   6     0.05  -0.03   0.01     0.04   0.01  -0.21    -0.20  -0.04  -0.04
  26   1    -0.04   0.06  -0.06     0.28   0.35   0.19     0.40  -0.11   0.46
  27   1    -0.04   0.07  -0.01    -0.18  -0.02   0.69    -0.16   0.25  -0.06
  28   1    -0.06   0.06   0.04    -0.28  -0.36  -0.01     0.61  -0.04  -0.23
                     61                     62                     63
                        a                      a                      a 
 Frequencies --  1475.5001              1490.1283              1585.3555
 Red. masses --     2.0333                10.1683                11.5419
 Frc consts  --     0.0000                 0.0000                 0.0000
 IR Inten    --     1.7430               348.2394                 5.7108
 Raman Activ --     0.0000                 0.0000                 0.0000
 Depolar     --     0.0000                 0.0000                 0.0000
 Atom AN      X      Y      Z        X      Y      Z        X      Y      Z
   1   8     0.01   0.00  -0.00     0.01   0.01  -0.00     0.00   0.00  -0.00
   2   8    -0.01   0.00  -0.00    -0.14   0.04  -0.03    -0.00  -0.05  -0.00
   3   8     0.00   0.00   0.00     0.00  -0.00   0.00     0.00   0.00  -0.00
   4   7    -0.01   0.01  -0.02    -0.00   0.01  -0.00    -0.00  -0.00  -0.00
   5   6     0.17  -0.01   0.24    -0.09   0.02  -0.03    -0.02   0.05  -0.00
   6   6     0.00  -0.00   0.02     0.00  -0.00   0.01    -0.00   0.00   0.00
   7   6    -0.03   0.00   0.01     0.30   0.01   0.07     0.04  -0.52  -0.01
   8   6    -0.03  -0.01  -0.01    -0.31  -0.19  -0.08     0.05   0.20   0.02
   9   6    -0.00   0.02   0.00     0.03   0.13   0.01    -0.19   0.38  -0.02
  10   6     0.02   0.03   0.01     0.03   0.39   0.02     0.12  -0.27   0.02
  11   6    -0.02  -0.02  -0.01    -0.35  -0.15  -0.09    -0.14  -0.29  -0.05
  12   6    -0.01  -0.00   0.00    -0.01  -0.00  -0.00     0.00  -0.00   0.00
  13   6     0.02  -0.01   0.00     0.43  -0.18   0.10     0.13   0.49   0.06
  14   1    -0.35  -0.39  -0.42     0.01   0.02   0.01    -0.05   0.00   0.00
  15   1    -0.16   0.40  -0.51    -0.01  -0.02   0.02     0.06  -0.03  -0.00
  16   1     0.00   0.00  -0.00    -0.00  -0.00   0.01     0.00   0.00  -0.00
  17   1     0.03   0.01   0.01     0.24   0.08   0.06    -0.02   0.04  -0.00
  18   1     0.03  -0.02   0.00     0.13  -0.06   0.03     0.12  -0.03   0.02
  19   1     0.02   0.00   0.00     0.21   0.07   0.06     0.07  -0.03   0.02
  20   1     0.03  -0.01   0.06     0.00  -0.00   0.01     0.01   0.00   0.00
  21   1    -0.00   0.02   0.01     0.00   0.00   0.00    -0.00   0.00   0.00
  22   1    -0.00   0.00  -0.00    -0.01   0.00  -0.00    -0.10   0.05  -0.02
  23   1     0.02  -0.04  -0.00     0.00  -0.01   0.00     0.00  -0.00   0.00
  24   8    -0.01  -0.01  -0.00    -0.01  -0.10  -0.01    -0.02  -0.01  -0.01
  25   6    -0.01  -0.00  -0.00     0.02   0.00   0.00     0.01   0.01   0.00
  26   1     0.01  -0.01   0.02    -0.08   0.04  -0.09    -0.00  -0.00   0.00
  27   1    -0.01   0.01  -0.01     0.03  -0.05   0.01    -0.00   0.01  -0.00
  28   1     0.02   0.00  -0.01    -0.12   0.03   0.05    -0.00  -0.00  -0.00
                     64                     65                     66
                        a                      a                      a 
 Frequencies --  1596.4356              1732.5327              2562.8849
 Red. masses --    11.6086                12.9187                 1.8325
 Frc consts  --     0.0000                 0.0000                 0.0000
 IR Inten    --    45.5373               774.8436               781.8095
 Raman Activ --     0.0000                 0.0000                 0.0000
 Depolar     --     0.0000                 0.0000                 0.0000
 Atom AN      X      Y      Z        X      Y      Z        X      Y      Z
   1   8    -0.00  -0.00   0.00     0.20   0.21  -0.12    -0.00  -0.02   0.02
   2   8    -0.01  -0.01  -0.00     0.00  -0.00   0.00     0.00  -0.00   0.00
   3   8    -0.00   0.00  -0.00    -0.07   0.35  -0.25    -0.00  -0.01   0.01
   4   7    -0.00  -0.00   0.00    -0.01  -0.01   0.01    -0.24  -0.04  -0.02
   5   6     0.04  -0.00   0.02     0.00  -0.00   0.00    -0.00   0.00  -0.00
   6   6     0.01  -0.00  -0.01    -0.00   0.02  -0.01    -0.01  -0.02   0.02
   7   6    -0.28  -0.00  -0.07    -0.00   0.00  -0.00    -0.00  -0.00  -0.00
   8   6     0.47   0.10   0.12     0.00  -0.00  -0.00    -0.00   0.00  -0.00
   9   6     0.36  -0.17   0.08     0.00  -0.00  -0.00     0.00   0.00  -0.00
  10   6    -0.39   0.09  -0.09    -0.00  -0.00   0.00    -0.00  -0.00  -0.00
  11   6    -0.44  -0.10  -0.11     0.00   0.00   0.00     0.00   0.00  -0.00
  12   6     0.00   0.00   0.00    -0.15  -0.69   0.44     0.02   0.02  -0.01
  13   6     0.25   0.08   0.06    -0.00   0.00  -0.00    -0.00   0.00  -0.00
  14   1     0.01  -0.00  -0.00     0.01  -0.00   0.00     0.00  -0.00   0.00
  15   1     0.01  -0.00  -0.00     0.00  -0.00   0.01     0.00  -0.00   0.00
  16   1    -0.00   0.00  -0.00     0.03  -0.03   0.03    -0.01  -0.01  -0.00
  17   1    -0.11  -0.07  -0.03     0.00   0.00   0.00     0.00  -0.00   0.00
  18   1    -0.05   0.07  -0.01    -0.00   0.00   0.00    -0.00   0.00   0.00
  19   1     0.08   0.05   0.02    -0.00   0.00  -0.00    -0.00   0.00   0.00
  20   1    -0.00   0.00  -0.00     0.01   0.02  -0.01    -0.01  -0.01  -0.01
  21   1    -0.00   0.00   0.00    -0.00   0.11  -0.07     0.92   0.31  -0.04
  22   1    -0.03   0.02  -0.01    -0.00   0.00   0.00    -0.00   0.00  -0.00
  23   1    -0.00   0.00   0.00     0.01   0.02  -0.01    -0.01   0.00   0.01
  24   8     0.04  -0.00   0.01     0.00   0.00   0.00     0.00   0.00   0.00
  25   6    -0.02   0.01  -0.00    -0.00   0.00  -0.00    -0.00   0.00   0.00
  26   1     0.00  -0.00   0.01     0.00  -0.00   0.00     0.00  -0.00  -0.00
  27   1     0.01  -0.01   0.00     0.00  -0.00   0.00     0.00  -0.00   0.00
  28   1     0.01  -0.00  -0.01     0.00  -0.00  -0.00    -0.00  -0.00   0.00
                     67                     68                     69
                        a                      a                      a 
 Frequencies --  2949.7883              2962.5285              2988.3482
 Red. masses --     1.9550                 1.4422                 1.8945
 Frc consts  --     0.0000                 0.0000                 0.0000
 IR Inten    --    45.9385                43.8537                24.7298
 Raman Activ --     0.0000                 0.0000                 0.0000
 Depolar     --     0.0000                 0.0000                 0.0000
 Atom AN      X      Y      Z        X      Y      Z        X      Y      Z
   1   8    -0.00  -0.00  -0.00    -0.00  -0.00   0.00     0.00   0.00  -0.00
   2   8    -0.00   0.00   0.00     0.00  -0.00   0.00    -0.00   0.00  -0.00
   3   8    -0.00   0.00  -0.00    -0.00   0.00  -0.00     0.00  -0.00   0.00
   4   7    -0.00   0.00  -0.00    -0.00  -0.00   0.00     0.00   0.00   0.00
   5   6    -0.00  -0.00   0.00    -0.00   0.00  -0.00    -0.09  -0.26  -0.04
   6   6     0.00   0.00   0.00     0.00   0.00   0.00     0.02   0.04   0.02
   7   6     0.00  -0.00  -0.00    -0.00   0.00  -0.00    -0.00  -0.01  -0.00
   8   6    -0.00  -0.00   0.00    -0.00   0.00  -0.00    -0.00   0.00  -0.00
   9   6     0.00   0.00  -0.00    -0.00   0.00  -0.00     0.00   0.00   0.00
  10   6    -0.00  -0.00   0.00     0.00   0.00   0.00     0.00  -0.00   0.00
  11   6     0.00  -0.00  -0.00     0.00   0.00   0.00    -0.00  -0.00  -0.00
  12   6     0.00  -0.00   0.00     0.00  -0.00   0.00     0.00   0.00   0.00
  13   6     0.00   0.00  -0.00    -0.00  -0.00  -0.00     0.00   0.00   0.00
  14   1    -0.00   0.00  -0.00     0.00  -0.00   0.00    -0.05   0.27  -0.24
  15   1     0.00   0.00   0.00     0.00   0.00   0.00     0.36   0.68   0.39
  16   1    -0.00  -0.00  -0.00    -0.00  -0.00  -0.00    -0.08  -0.16  -0.09
  17   1    -0.00   0.00   0.00     0.00  -0.01  -0.00     0.00  -0.00   0.00
  18   1    -0.00  -0.00   0.00     0.00   0.00   0.00    -0.01  -0.01  -0.00
  19   1    -0.00   0.00   0.00    -0.00   0.00  -0.00     0.00   0.00  -0.00
  20   1    -0.00  -0.00  -0.00    -0.00   0.00   0.00     0.00   0.00  -0.00
  21   1     0.00   0.00   0.00     0.00   0.00   0.00     0.00   0.00  -0.00
  22   1     0.00  -0.00  -0.00    -0.00   0.00  -0.00    -0.00  -0.00  -0.00
  23   1    -0.00   0.00  -0.00    -0.00  -0.00  -0.00    -0.00  -0.00  -0.00
  24   8     0.00   0.00  -0.01     0.01  -0.02   0.00    -0.00  -0.00  -0.00
  25   6     0.07   0.01  -0.28     0.18  -0.06   0.04    -0.00  -0.00   0.00
  26   1    -0.50   0.12   0.43    -0.48   0.12   0.49     0.00  -0.00  -0.00
  27   1     0.01   0.00  -0.04     0.01  -0.01   0.00     0.00   0.00   0.00
  28   1     0.24  -0.17   0.61    -0.19   0.17  -0.64    -0.00   0.00  -0.00
                     70                     71                     72
                        a                      a                      a 
 Frequencies --  3002.6939              3009.9321              3036.9446
 Red. masses --     1.5646                 1.7978                 1.7029
 Frc consts  --     0.0000                 0.0000                 0.0000
 IR Inten    --    28.9880                31.6102                17.6124
 Raman Activ --     0.0000                 0.0000                 0.0000
 Depolar     --     0.0000                 0.0000                 0.0000
 Atom AN      X      Y      Z        X      Y      Z        X      Y      Z
   1   8    -0.00  -0.00   0.00     0.00   0.00  -0.00    -0.00  -0.00   0.00
   2   8     0.00  -0.00   0.00     0.00   0.00   0.00     0.00  -0.00   0.00
   3   8    -0.00   0.00  -0.00     0.00   0.00  -0.00    -0.00   0.00  -0.00
   4   7    -0.00   0.00  -0.00    -0.00  -0.00   0.00    -0.00  -0.00  -0.00
   5   6     0.06  -0.10   0.19    -0.02  -0.06  -0.01     0.00   0.00  -0.00
   6   6     0.00   0.00   0.01    -0.10  -0.21  -0.11     0.00   0.00   0.00
   7   6     0.00  -0.00   0.00    -0.00  -0.00  -0.00     0.00   0.00   0.00
   8   6    -0.00   0.00  -0.00    -0.00   0.00  -0.00     0.00  -0.00   0.00
   9   6    -0.00  -0.00  -0.00     0.00   0.00   0.00    -0.00  -0.00  -0.00
  10   6     0.00  -0.00  -0.00     0.00   0.00   0.00     0.00   0.00   0.00
  11   6     0.00  -0.00  -0.00    -0.00   0.00  -0.00     0.00  -0.00   0.00
  12   6     0.00  -0.00   0.00    -0.01  -0.00  -0.00     0.00  -0.00   0.00
  13   6    -0.00   0.00  -0.00    -0.00   0.00   0.00    -0.00   0.00  -0.00
  14   1    -0.07   0.71  -0.53    -0.01   0.08  -0.07     0.00  -0.00   0.00
  15   1    -0.16  -0.33  -0.15     0.07   0.13   0.07    -0.00  -0.00  -0.00
  16   1    -0.01  -0.02  -0.01     0.38   0.76   0.42    -0.00  -0.00  -0.00
  17   1     0.00  -0.01   0.00     0.00  -0.01   0.00    -0.00   0.01  -0.00
  18   1     0.00   0.00   0.00    -0.00  -0.00  -0.00     0.00   0.00   0.00
  19   1    -0.00   0.00  -0.00    -0.00  -0.00  -0.00    -0.00   0.00  -0.00
  20   1     0.00  -0.00   0.00     0.00  -0.01  -0.00     0.00   0.00  -0.00
  21   1     0.00   0.00  -0.00     0.01  -0.00  -0.00     0.00   0.00  -0.00
  22   1     0.00   0.00   0.00    -0.00  -0.00  -0.00     0.00   0.00   0.00
  23   1     0.00   0.00   0.00    -0.00  -0.00  -0.01     0.00   0.00   0.00
  24   8     0.00   0.00   0.00    -0.00  -0.00  -0.00    -0.00  -0.01  -0.00
  25   6     0.00  -0.00   0.00     0.00  -0.00  -0.00    -0.21  -0.13  -0.06
  26   1    -0.00   0.00   0.00    -0.00   0.00   0.00    -0.04  -0.01  -0.00
  27   1     0.00   0.00   0.00     0.00   0.00   0.00     0.79   0.51   0.22
  28   1    -0.00   0.00  -0.00    -0.00   0.00  -0.00    -0.03  -0.01  -0.02
                     73                     74                     75
                        a                      a                      a 
 Frequencies --  3085.0709              3105.1558              3114.9277
 Red. masses --     1.8150                 1.8236                 1.8545
 Frc consts  --     0.0000                 0.0000                 0.0000
 IR Inten    --    41.3830                38.2794                40.1785
 Raman Activ --     0.0000                 0.0000                 0.0000
 Depolar     --     0.0000                 0.0000                 0.0000
 Atom AN      X      Y      Z        X      Y      Z        X      Y      Z
   1   8     0.00   0.00  -0.00     0.00   0.00  -0.00    -0.00  -0.00   0.00
   2   8    -0.00  -0.00  -0.00    -0.00   0.00  -0.00     0.00  -0.00  -0.00
   3   8     0.00  -0.00   0.00     0.00  -0.00   0.00    -0.00   0.00  -0.00
   4   7     0.00  -0.00  -0.00     0.00   0.00   0.00    -0.00   0.00   0.00
   5   6    -0.00  -0.00  -0.00    -0.00   0.00  -0.00     0.00   0.00   0.00
   6   6    -0.00  -0.00  -0.00     0.00   0.00   0.00    -0.00   0.00   0.00
   7   6    -0.01  -0.00  -0.00    -0.01   0.00  -0.00     0.00  -0.00   0.00
   8   6     0.01  -0.02   0.00    -0.10   0.25  -0.02     0.01  -0.02   0.00
   9   6    -0.16  -0.21  -0.06    -0.01  -0.01  -0.00     0.04   0.05   0.01
  10   6     0.00  -0.00  -0.00     0.01   0.01   0.00     0.00  -0.00   0.00
  11   6    -0.02   0.04  -0.00    -0.01   0.02  -0.00    -0.10   0.25  -0.01
  12   6    -0.00   0.00  -0.00    -0.00  -0.00  -0.00     0.00  -0.00   0.00
  13   6    -0.00   0.00   0.00     0.00  -0.00  -0.00    -0.01   0.00  -0.00
  14   1    -0.00   0.00  -0.00     0.00  -0.01   0.01    -0.00   0.00  -0.00
  15   1     0.01   0.01   0.01    -0.00  -0.00   0.00    -0.00  -0.00  -0.00
  16   1     0.00   0.00   0.00    -0.00  -0.00  -0.00    -0.00  -0.00  -0.00
  17   1    -0.03   0.06  -0.00     0.34  -0.89   0.05    -0.02   0.06  -0.00
  18   1     0.56   0.73   0.20     0.03   0.04   0.01    -0.10  -0.14  -0.04
  19   1     0.06  -0.17   0.01     0.03  -0.07   0.00     0.34  -0.88   0.04
  20   1    -0.00   0.01   0.00     0.00  -0.00  -0.00     0.00  -0.00  -0.00
  21   1     0.00   0.00   0.00    -0.00  -0.00   0.00     0.00   0.00  -0.00
  22   1    -0.00  -0.00  -0.00    -0.00  -0.00  -0.00     0.00   0.01   0.00
  23   1    -0.00  -0.00  -0.00    -0.00   0.00  -0.00     0.00   0.00   0.00
  24   8     0.00  -0.00   0.00    -0.00   0.00  -0.00     0.00   0.00   0.00
  25   6     0.00   0.00   0.00    -0.00   0.00  -0.00     0.00  -0.00  -0.00
  26   1    -0.00   0.00   0.00     0.01  -0.00  -0.01    -0.00   0.00   0.00
  27   1    -0.00  -0.00  -0.00     0.01   0.00   0.00     0.00   0.00   0.00
  28   1     0.00   0.00  -0.00     0.00  -0.00   0.01    -0.00   0.00  -0.00
                     76                     77                     78
                        a                      a                      a 
 Frequencies --  3286.8759              3321.0897              3433.5838
 Red. masses --     1.8020                 1.8007                 1.8651
 Frc consts  --     0.0000                 0.0000                 0.0000
 IR Inten    --   124.3831               130.1975               211.4300
 Raman Activ --     0.0000                 0.0000                 0.0000
 Depolar     --     0.0000                 0.0000                 0.0000
 Atom AN      X      Y      Z        X      Y      Z        X      Y      Z
   1   8    -0.00   0.00  -0.00    -0.00   0.00  -0.00     0.00   0.00  -0.00
   2   8    -0.00  -0.00  -0.00     0.00  -0.00   0.00    -0.11  -0.21  -0.04
   3   8    -0.00   0.00  -0.00    -0.00   0.00  -0.00     0.00   0.00   0.00
   4   7     0.13  -0.19  -0.09     0.06   0.05   0.23    -0.00   0.00  -0.00
   5   6     0.00  -0.00  -0.00     0.00   0.00   0.00    -0.00  -0.00  -0.00
   6   6    -0.00  -0.01   0.00     0.00   0.00   0.00     0.00  -0.00   0.00
   7   6    -0.00   0.00  -0.00    -0.00   0.00  -0.00     0.00   0.00   0.00
   8   6     0.00   0.00  -0.00     0.00  -0.00   0.00    -0.00   0.00  -0.00
   9   6     0.00   0.00   0.00     0.00   0.00   0.00    -0.00  -0.00  -0.00
  10   6    -0.00   0.00   0.00    -0.00  -0.00  -0.00     0.00  -0.00   0.00
  11   6     0.00  -0.00   0.00    -0.00   0.00   0.00     0.00  -0.00   0.00
  12   6     0.00  -0.00   0.00     0.00  -0.00   0.00    -0.00   0.00  -0.00
  13   6     0.00  -0.00  -0.00    -0.00   0.00  -0.00    -0.01  -0.00  -0.00
  14   1     0.00   0.00  -0.00    -0.00   0.00  -0.00     0.00  -0.00   0.00
  15   1    -0.00   0.00   0.00    -0.00  -0.00  -0.00     0.00   0.00   0.00
  16   1     0.00   0.01   0.00    -0.00  -0.00  -0.01    -0.00   0.00   0.00
  17   1     0.00  -0.00   0.00    -0.00   0.00  -0.00     0.00  -0.00   0.00
  18   1    -0.00  -0.01  -0.00    -0.00  -0.00  -0.00     0.00   0.00   0.00
  19   1     0.00  -0.00   0.00     0.00  -0.00   0.00    -0.00   0.01  -0.00
  20   1    -0.51   0.75   0.34    -0.00   0.02   0.03     0.00  -0.00  -0.00
  21   1     0.03  -0.01  -0.00     0.03   0.01   0.02    -0.00  -0.00   0.00
  22   1     0.00   0.00   0.00     0.00   0.00   0.00     0.47   0.84   0.15
  23   1     0.02  -0.01  -0.00    -0.26  -0.22  -0.91     0.00   0.00   0.00
  24   8    -0.00  -0.00  -0.00     0.00   0.00   0.00    -0.00   0.00  -0.00
  25   6    -0.00  -0.00  -0.00    -0.00  -0.00   0.00    -0.00  -0.00  -0.00
  26   1     0.00  -0.00  -0.00     0.00  -0.00  -0.00     0.00  -0.00   0.00
  27   1     0.00  -0.00   0.00     0.00   0.00   0.00    -0.00  -0.00  -0.00
  28   1     0.00  -0.00   0.00     0.00  -0.00   0.00     0.00  -0.00   0.00
