28
 energy: -47.254855692939 gnorm: 0.000366345617 xtb: 6.4.1 (afa7bdf)
O        -4.50430772670239   -0.32547343948536    0.48036267468831
O         4.02075648039846   -1.15900213664236    0.34292098187002
O        -3.89702710235448    1.49397265471537   -0.67953106279941
N        -2.24872384363952   -1.00973495889086    1.28194642116785
C        -1.40492625410871   -0.16870471859633   -0.89935516363296
C        -2.18110016652779    0.15569314785825    0.37765802731459
C         0.04563753605178   -0.43702485795177   -0.60368891817900
C         0.90307207287457    0.62913871507372   -0.34058240454788
C         0.53624585537190   -1.73106995507832   -0.54354219153885
C         2.22966441700249    0.40496953145418   -0.02473936151352
C         1.86541920800703   -1.96838696329269   -0.22945893469832
C        -3.68679839778594    0.49586122890918    0.01051638073460
C         2.71950134851624   -0.91296502642330    0.03407005225866
H        -1.51379385565900    0.68536125136428   -1.56978655364881
H        -1.86325711587996   -1.03080086514940   -1.38668081641084
H        -1.74661054444104    1.02563302360400    0.86945742345491
H         0.51485266808521    1.63355773392126   -0.39899046265064
H        -0.10504794667336   -2.56880640395940   -0.77108542525657
H         2.26132909898714   -2.96989525884244   -0.18745221344305
H        -1.70166733772466   -1.79967077271712    0.92962048849141
H        -3.29974583818903   -1.21485162533953    1.23968794783804
H         4.47736000292459   -0.31476742052435    0.48677497565788
H        -1.97600673561208   -0.79956083060654    2.24323365272910
O         3.16199966993198    1.37705359793516    0.25041716688690
C         2.75584603738367    2.72926834818659    0.21165126212430
H         1.97240063920357    2.92691802236757    0.94754717823471
H         3.64494203085964    3.30392443016617    0.46110093189995
H         2.40569453436826    3.00806286889248   -0.78544742128568
