      -----------------------------------------------------------      
     |                   =====================                   |     
     |                           x T B                           |     
     |                   =====================                   |     
     |                         S. Grimme                         |     
     |          Mulliken Center for Theoretical Chemistry        |     
     |                    University of Bonn                     |     
      -----------------------------------------------------------      

   * xtb version 6.4.1 (afa7bdf) compiled by 'ehlert@majestix' on 2021-06-10

   xtb is free software: you can redistribute it and/or modify it under
   the terms of the GNU Lesser General Public License as published by
   the Free Software Foundation, either version 3 of the License, or
   (at your option) any later version.
   
   xtb is distributed in the hope that it will be useful,
   but WITHOUT ANY WARRANTY; without even the implied warranty of
   MERCHANTABILITY or FITNESS FOR A PARTICULAR PURPOSE.  See the
   GNU Lesser General Public License for more details.
   
   Cite this work as:
   * C. Bannwarth, E. Caldeweyher, S. Ehlert, A. Hansen, P. Pracht,
     J. Seibert, S. Spicher, S. Grimme, WIREs Comput. Mol. Sci., 2020, 11,
     e01493. DOI: 10.1002/wcms.1493
   
   for GFN2-xTB:
   * C. Bannwarth, S. Ehlert and S. Grimme., J. Chem. Theory Comput., 2019,
     15, 1652-1671. DOI: 10.1021/acs.jctc.8b01176
   for GFN1-xTB:
   * S. Grimme, C. Bannwarth, P. Shushkov, J. Chem. Theory Comput., 2017,
     13, 1989-2009. DOI: 10.1021/acs.jctc.7b00118
   for GFN0-xTB:
   * P. Pracht, E. Caldeweyher, S. Ehlert, S. Grimme, ChemRxiv, 2019, preprint.
     DOI: 10.26434/chemrxiv.8326202.v1
   for GFN-FF:
   * S. Spicher and S. Grimme, Angew. Chem. Int. Ed., 2020, 59, 15665-15673.
     DOI: 10.1002/anie.202004239
   
   for DFT-D4:
   * E. Caldeweyher, C. Bannwarth and S. Grimme, J. Chem. Phys., 2017,
     147, 034112. DOI: 10.1063/1.4993215
   * E. Caldeweyher, S. Ehlert, A. Hansen, H. Neugebauer, S. Spicher,
     C. Bannwarth and S. Grimme, J. Chem. Phys., 2019, 150, 154122.
     DOI: 10.1063/1.5090222
   * E. Caldeweyher, J.-M. Mewes, S. Ehlert and S. Grimme, Phys. Chem. Chem. Phys.
     2020, 22, 8499-8512. DOI: 10.1039/D0CP00502A
   
   for sTDA-xTB:
   * S. Grimme and C. Bannwarth, J. Chem. Phys., 2016, 145, 054103.
     DOI: 10.1063/1.4959605
   
   in the mass-spec context:
   * V. Asgeirsson, C. Bauer and S. Grimme, Chem. Sci., 2017, 8, 4879.
     DOI: 10.1039/c7sc00601b
   * J. Koopman and S. Grimme, ACS Omega 2019, 4, 12, 15120-15133.
     DOI: 10.1021/acsomega.9b02011
   
   for metadynamics refer to:
   * S. Grimme, J. Chem. Theory Comput., 2019, 155, 2847-2862
     DOI: 10.1021/acs.jctc.9b00143
   
   for SPH calculations refer to:
   * S. Spicher and S. Grimme, J. Chem. Theory Comput., 2021, 17, 1701-1714
     DOI: 10.1021/acs.jctc.0c01306
   
   with help from (in alphabetical order)
   P. Atkinson, C. Bannwarth, F. Bohle, G. Brandenburg, E. Caldeweyher
   M. Checinski, S. Dohm, S. Ehlert, S. Ehrlich, I. Gerasimov, J. Koopman
   C. Lavigne, S. Lehtola, F. März, M. Müller, F. Musil, H. Neugebauer
   J. Pisarek, C. Plett, P. Pracht, J. Seibert, P. Shushkov, S. Spicher
   M. Stahn, M. Steiner, T. Strunk, J. Stückrath, T. Rose, and J. Unsleber
   
 * started run on 2021/11/15 at 09:36:21.286     

           -------------------------------------------------
          |                Calculation Setup                |
           -------------------------------------------------

          program call               : xtb 34_1,2-dimethoxybenzene.xyz --gfn2 --chrg 0 --uhf 0 --alpb water --ohess -P 1
          coordinate file            : 34_1,2-dimethoxybenzene.xyz
          omp threads                :                     1
          number of atoms            :                    20
          number of electrons        :                    54
          charge                     :                     0
          spin                       :                   0.0
          first test random number   :      0.70827652756288

   ID    Z sym.   atoms
    1    6 C      1-6, 10, 15
    2    1 H      7, 8, 11-13, 16-20
    3    8 O      9, 14

           -------------------------------------------------
          |                 G F N 2 - x T B                 |
           -------------------------------------------------

        Reference                      10.1021/acs.jctc.8b01176
      * Hamiltonian:
        H0-scaling (s, p, d)           1.850000    2.230000    2.230000
        zeta-weighting                 0.500000
      * Dispersion:
        s8                             2.700000
        a1                             0.520000
        a2                             5.000000
        s9                             5.000000
      * Repulsion:
        kExp                           1.500000    1.000000
        rExp                           1.000000
      * Coulomb:
        alpha                          2.000000
        third order                    shell-resolved
        anisotropic                    true
        a3                             3.000000
        a5                             4.000000
        cn-shift                       1.200000
        cn-exp                         4.000000
        max-rad                        5.000000

      * Solvation model:               ALPB
        Solvent                        water
        Parameter file                 internal GFN2-xTB/ALPB
        Dielectric constant                8.0200E+01
        Reference state                gsolv [1 M gas/solution]
        Free energy shift                  1.0808E-03 Eh       6.7819E-01 kcal/mol
        Temperature                        2.9815E+02 K
        Density                            1.0000E+00 kg/L
        Solvent mass                       1.8000E+01 g/mol
        Interaction kernel             P16
        Born radius scaling (c1)           1.4744E+00
        Born radii integrator          GBOBC
        Born offset                        0.0000E+00 a0       0.0000E+00 AA
        H-bond correction              true
        Ion screening                  false
        Surface tension                    1.0000E-05 Eh       1.5569E+01 dyn/cm
        Grid points                               230 per atom

          ...................................................
          :                      SETUP                      :
          :.................................................:
          :  # basis functions                  50          :
          :  # atomic orbitals                  50          :
          :  # shells                           30          :
          :  # electrons                        54          :
          :  max. iterations                   250          :
          :  Hamiltonian                  GFN2-xTB          :
          :  restarted?                      false          :
          :  GBSA solvation                   true          :
          :  PC potential                    false          :
          :  electronic temp.          300.0000000     K    :
          :  accuracy                    1.0000000          :
          :  -> integral cutoff          0.2500000E+02      :
          :  -> integral neglect         0.1000000E-07      :
          :  -> SCF convergence          0.1000000E-05 Eh   :
          :  -> wf. convergence          0.1000000E-03 e    :
          :  Broyden damping             0.4000000          :
          ...................................................

 iter      E             dE          RMSdq      gap      omega  full diag
   1    -30.7085148 -0.307085E+02  0.498E+00    4.13       0.0  T
   2    -30.7392478 -0.307330E-01  0.265E+00    4.02       1.0  T
   3    -30.7398712 -0.623410E-03  0.660E-01    3.97       1.0  T
   4    -30.7401857 -0.314506E-03  0.145E-01    4.02       1.0  T
   5    -30.7403643 -0.178632E-03  0.823E-02    4.02       1.0  T
   6    -30.7403760 -0.116752E-04  0.253E-02    4.02       1.0  T
   7    -30.7403775 -0.148121E-05  0.665E-03    4.02       3.4  T
   8    -30.7403779 -0.432365E-06  0.296E-03    4.02       7.6  T
   9    -30.7403779 -0.137512E-07  0.401E-04    4.02      55.8  T
  10    -30.7403779 -0.308397E-09  0.234E-04    4.02      95.5  T

   *** convergence criteria satisfied after 10 iterations ***

         #    Occupation            Energy/Eh            Energy/eV
      -------------------------------------------------------------
         1        2.0000           -0.7151192             -19.4594
       ...           ...                  ...                  ...
        21        2.0000           -0.4595636             -12.5054
        22        2.0000           -0.4507665             -12.2660
        23        2.0000           -0.4427942             -12.0490
        24        2.0000           -0.4331684             -11.7871
        25        2.0000           -0.4260391             -11.5931
        26        2.0000           -0.3934439             -10.7062
        27        2.0000           -0.3669217              -9.9844 (HOMO)
        28                         -0.2191114              -5.9623 (LUMO)
        29                         -0.2138306              -5.8186
        30                         -0.0910604              -2.4779
        31                          0.0090024               0.2450
        32                          0.0263633               0.7174
       ...                                ...                  ...
        50                          0.6573268              17.8868
      -------------------------------------------------------------
                  HL-Gap            0.1478103 Eh            4.0221 eV
             Fermi-level           -0.2930165 Eh           -7.9734 eV

 SCC (total)                   0 d,  0 h,  0 min,  0.012 sec
 SCC setup                      ...        0 min,  0.000 sec (  4.123%)
 Dispersion                     ...        0 min,  0.000 sec (  1.208%)
 classical contributions        ...        0 min,  0.000 sec (  0.224%)
 integral evaluation            ...        0 min,  0.002 sec ( 16.352%)
 iterations                     ...        0 min,  0.005 sec ( 40.137%)
 molecular gradient             ...        0 min,  0.004 sec ( 35.930%)
 printout                       ...        0 min,  0.000 sec (  1.833%)

         :::::::::::::::::::::::::::::::::::::::::::::::::::::
         ::                     SUMMARY                     ::
         :::::::::::::::::::::::::::::::::::::::::::::::::::::
         :: total energy             -30.344826708834 Eh    ::
         :: total w/o Gsasa/hb       -30.344316770070 Eh    ::
         :: gradient norm              0.020620519928 Eh/a0 ::
         :: HOMO-LUMO gap              4.022121797748 eV    ::
         ::.................................................::
         :: SCC energy               -30.740377947293 Eh    ::
         :: -> isotropic ES            0.038612997296 Eh    ::
         :: -> anisotropic ES          0.004749628093 Eh    ::
         :: -> anisotropic XC          0.009339335328 Eh    ::
         :: -> dispersion             -0.015221631199 Eh    ::
         :: -> Gsolv                  -0.006949621614 Eh    ::
         ::    -> Gelec               -0.006439682849 Eh    ::
         ::    -> Gsasa               -0.000139840807 Eh    ::
         ::    -> Ghb                 -0.001450857655 Eh    ::
         ::    -> Gshift               0.001080759698 Eh    ::
         :: repulsion energy           0.395506938541 Eh    ::
         :: add. restraining           0.000000000000 Eh    ::
         :: total charge              -0.000000000000 e     ::
         :::::::::::::::::::::::::::::::::::::::::::::::::::::

      ----------------------------------------------------------- 
     |                   =====================                   |
     |                        A N C O P T                        |
     |                   =====================                   |
     |               Approximate Normal Coordinate               |
     |                Rational Function Optimizer                |
      ----------------------------------------------------------- 

          ...................................................
          :                      SETUP                      :
          :.................................................:
          :   optimization level            normal          :
          :   max. optcycles                   200          :
          :   ANC micro-cycles                  20          :
          :   degrees of freedom                54          :
          :.................................................:
          :   RF solver                   davidson          :
          :   write xtbopt.log                true          :
          :   linear?                        false          :
          :   energy convergence         0.5000000E-05 Eh   :
          :   grad. convergence          0.1000000E-02 Eh/α :
          :   maximium RF displ.         1.0000000          :
          :   Hlow (freq-cutoff)         0.1000000E-01      :
          :   Hmax (freq-cutoff)         5.0000000          :
          :   S6 in model hess.         20.0000000          :
          ...................................................

generating ANC from model Hessian ...
Using Lindh-Hessian (1995)
 Shifting diagonal of input Hessian by   7.330958184208050E-003
 Lowest  eigenvalues of input Hessian
    0.000000    0.000000    0.000000    0.000000    0.000000    0.000000
    0.010000    0.010273    0.012215    0.013229    0.013288    0.016597
    0.022302    0.025722    0.032540    0.034731    0.037818    0.061623
 Highest eigenvalues
    1.546317    1.663039    1.785842    1.881913    2.006150    2.113840
 

........................................................................
.............................. CYCLE    1 ..............................
........................................................................
   1    -30.7403779 -0.307404E+02  0.112E-04    4.02       0.0  T
   2    -30.7403779 -0.371472E-10  0.739E-05    4.02     302.7  T
   3    -30.7403779 -0.154472E-10  0.539E-05    4.02     415.1  T
     SCC iter.                  ...        0 min,  0.002 sec
     gradient                   ...        0 min,  0.004 sec
 * total energy  :   -30.3448267 Eh     change       -0.2947544E-09 Eh
   gradient norm :     0.0206219 Eh/α   predicted     0.0000000E+00 (-100.00%)
   displ. norm   :     0.0959571 α      lambda       -0.1234498E-02
   maximum displ.:     0.0493706 α      in ANC's #4, #32, #26, ...

........................................................................
.............................. CYCLE    2 ..............................
........................................................................
   1    -30.7543725 -0.307544E+02  0.878E-02    4.08       0.0  T
   2    -30.7543743 -0.177976E-05  0.538E-02    4.07       1.0  T
   3    -30.7543730  0.132780E-05  0.947E-03    4.08       2.4  T
   4    -30.7543749 -0.191422E-05  0.240E-03    4.08       9.3  T
   5    -30.7543749 -0.235572E-07  0.114E-03    4.08      19.6  T
   6    -30.7543749 -0.254689E-08  0.437E-04    4.08      51.1  T
   7    -30.7543749 -0.483787E-09  0.248E-04    4.08      90.1  T
     SCC iter.                  ...        0 min,  0.004 sec
     gradient                   ...        0 min,  0.006 sec
 * total energy  :   -30.3455627 Eh     change       -0.7360302E-03 Eh
   gradient norm :     0.0050084 Eh/α   predicted    -0.6229349E-03 ( -15.37%)
   displ. norm   :     0.0418689 α      lambda       -0.7494509E-04
   maximum displ.:     0.0356547 α      in ANC's #4, #9, #26, ...

........................................................................
.............................. CYCLE    3 ..............................
........................................................................
   1    -30.7575054 -0.307575E+02  0.245E-02    4.09       0.0  T
   2    -30.7575055 -0.118360E-06  0.148E-02    4.09       1.5  T
   3    -30.7575055  0.209154E-07  0.232E-03    4.09       9.6  T
   4    -30.7575056 -0.804540E-07  0.871E-04    4.09      25.7  T
   5    -30.7575056 -0.227490E-08  0.420E-04    4.09      53.3  T
     SCC iter.                  ...        0 min,  0.003 sec
     gradient                   ...        0 min,  0.004 sec
 * total energy  :   -30.3456053 Eh     change       -0.4259012E-04 Eh
   gradient norm :     0.0016388 Eh/α   predicted    -0.3762580E-04 ( -11.66%)
   displ. norm   :     0.0332350 α      lambda       -0.7361790E-05
   maximum displ.:     0.0327028 α      in ANC's #4, #14, #9, ...

........................................................................
.............................. CYCLE    4 ..............................
........................................................................
   1    -30.7576424 -0.307576E+02  0.135E-02    4.09       0.0  T
   2    -30.7576424 -0.479432E-07  0.811E-03    4.09       2.8  T
   3    -30.7576424 -0.170914E-08  0.120E-03    4.09      18.6  T
   4    -30.7576424 -0.175975E-07  0.538E-04    4.09      41.6  T
   5    -30.7576424 -0.872703E-09  0.317E-04    4.09      70.6  T
     SCC iter.                  ...        0 min,  0.004 sec
     gradient                   ...        0 min,  0.004 sec
 * total energy  :   -30.3456120 Eh     change       -0.6689627E-05 Eh
   gradient norm :     0.0006204 Eh/α   predicted    -0.3891869E-05 ( -41.82%)
   displ. norm   :     0.0116202 α      lambda       -0.1318891E-05
   maximum displ.:     0.0111652 α      in ANC's #4, #26, #32, ...

........................................................................
.............................. CYCLE    5 ..............................
........................................................................
   1    -30.7571334 -0.307571E+02  0.506E-03    4.08       0.0  T
   2    -30.7571334 -0.707158E-08  0.312E-03    4.08       7.2  T
   3    -30.7571334  0.778618E-08  0.698E-04    4.08      32.1  T
   4    -30.7571335 -0.100663E-07  0.133E-04    4.08     167.6  T
     SCC iter.                  ...        0 min,  0.002 sec
     gradient                   ...        0 min,  0.004 sec
 * total energy  :   -30.3456132 Eh     change       -0.1137040E-05 Eh
   gradient norm :     0.0002613 Eh/α   predicted    -0.7271248E-06 ( -36.05%)
   displ. norm   :     0.0035890 α      lambda       -0.7895077E-07
   maximum displ.:     0.0032535 α      in ANC's #4, #9, #18, ...

   *** GEOMETRY OPTIMIZATION CONVERGED AFTER 5 ITERATIONS ***

------------------------------------------------------------------------
 total energy gain   :        -0.0007864 Eh       -0.4935 kcal/mol
 total RMSD          :         0.0370415 a0        0.0196 Å
 total power (kW/mol):        -0.4129634 (step)  -36.8375 (real)
------------------------------------------------------------------------

 ANCopt (total)                0 d,  0 h,  0 min,  0.056 sec
 optimizer setup                ...        0 min,  0.000 sec (  0.400%)
 model hessian                  ...        0 min,  0.003 sec (  5.188%)
 ANC generation                 ...        0 min,  0.001 sec (  0.902%)
 coordinate transformation      ...        0 min,  0.000 sec (  0.092%)
 single point calculation       ...        0 min,  0.050 sec ( 89.981%)
 optimization log               ...        0 min,  0.001 sec (  2.153%)
 hessian update                 ...        0 min,  0.000 sec (  0.074%)
 rational function              ...        0 min,  0.000 sec (  0.562%)

================
 final structure:
================
20
 xtb: 6.4.1 (afa7bdf)
C        -0.68928779280932    2.29009511244519    0.00000025563728
C        -1.38674660786902    1.08872757254654   -0.00000053955645
C        -0.70597709179965   -0.11590560029554   -0.00000011259485
C         0.70604055441391   -0.11558117065647   -0.00000005769922
C         1.38625496344795    1.08936742981402    0.00000029644055
C         0.68824410056151    2.29041348202324    0.00000093418288
H         2.46367695039712    1.10682359819030    0.00000075308166
H         1.23561229817379    3.21969703234123    0.00000080799496
O         1.29094411539089   -1.35174341459239   -0.00000062549965
C         2.70320441718817   -1.42430059959333    0.00000053856260
H         3.12354634700713   -0.95702321798225    0.89470327942263
H         2.93277519698008   -2.48739499492579    0.00000041416116
H         3.12354798402456   -0.95702264408611   -0.89470113802317
O        -1.29030544880236   -1.35234603219788   -0.00000094380958
C        -2.70253464955512   -1.42555889815012    0.00000216870304
H        -3.12309004017101   -0.95847627642525    0.89470482807541
H        -3.12309417696673   -0.95847834921006   -0.89469965734343
H        -2.93160902017673   -2.48875997714325    0.00000388400856
H        -2.46417702102754    1.10569295114530   -0.00000059673913
H        -1.23708307840764    3.21912699675263    0.00000051099473
 
 Bond Distances (Angstroems)
 ---------------------------
C1-C2=1.3891         C1-C6=1.3775         C1-H20=1.0785        C2-C1=1.3891         C2-C3=1.3837         C2-H19=1.0776        
C3-C2=1.3837         C3-C4=1.4120         C3-O14=1.3676        C4-C3=1.4120         C4-C5=1.3837         C4-O9=1.3676         
C5-C4=1.3837         C5-C6=1.3891         C5-H7=1.0776         C6-C1=1.3775         C6-C5=1.3891         C6-H8=1.0785         
H7-C5=1.0776         H8-C6=1.0785         O9-C4=1.3676         O9-C10=1.4141        C10-O9=1.4141        C10-H11=1.0934       
C10-H12=1.0876       C10-H13=1.0934       H11-C10=1.0934       H12-C10=1.0876       H13-C10=1.0934       O14-C3=1.3676        
O14-C15=1.4141       C15-O14=1.4141       C15-H16=1.0934       C15-H17=1.0934       C15-H18=1.0876       H16-C15=1.0934       
H17-C15=1.0934       H18-C15=1.0876       H19-C2=1.0776        H20-C1=1.0785        
 C  H  Rav=1.0861 sigma=0.0069  Rmin=1.0776  Rmax=1.0934    10
 C  C  Rav=1.3892 sigma=0.0109  Rmin=1.3775  Rmax=1.4120     6
 O  C  Rav=1.3908 sigma=0.0233  Rmin=1.3676  Rmax=1.4141     4
 
 selected bond angles (degree)
 --------------------
C6-C1-C2=120.15                H20-C1-C2=119.34               H20-C1-C6=120.51               C3-C2-C1=120.39                
H19-C2-C1=119.24               H19-C2-C3=120.37               C4-C3-C2=119.46                O14-C3-C2=125.23               
O14-C3-C4=115.31               C5-C4-C3=119.46                O9-C4-C3=115.31                O9-C4-C5=125.23                
C6-C5-C4=120.39                H7-C5-C4=120.37                H7-C5-C6=119.24                C5-C6-C1=120.15                
H8-C6-C1=120.51                H8-C6-C5=119.34                C10-O9-C4=118.26               H11-C10-O9=111.22              
H12-C10-O9=105.13              H12-C10-H11=109.67             H13-C10-O9=111.22              H13-C10-H11=109.82             
H13-C10-H12=109.67             
 
 selected dihedral angles (degree)
 ---------------------------------
C3-C2-C1-C6=  0.00            C3-C2-C1-H20=180.00           H19-C2-C1-C6=180.00           H19-C2-C1-H20=  0.00          
C4-C3-C2-C1=  0.00            C4-C3-C2-H19=180.00           O14-C3-C2-C1=180.00           O14-C3-C2-H19=  0.00          
C5-C4-C3-C2=  0.00            C5-C4-C3-O14=180.00           O9-C4-C3-C2=180.00            O9-C4-C3-O14=  0.00           
C6-C5-C4-C3=  0.00            C6-C5-C4-O9=180.00            H7-C5-C4-C3=180.00            H7-C5-C4-O9=  0.00            
C5-C6-C1-C2=  0.00            C5-C6-C1-H20=180.00           H8-C6-C1-C2=180.00            H8-C6-C1-H20=  0.00           
C1-C6-C5-C4=  0.00            C1-C6-C5-H7=180.00            H8-C6-C5-C4=180.00            H8-C6-C5-H7=  0.00            
C10-O9-C4-C3=180.00           C10-O9-C4-C5=  0.00           H11-C10-O9-C4= 61.38          H12-C10-O9-C4=180.00          
H13-C10-O9-C4=298.62          
           -------------------------------------------------
          |                Final Singlepoint                |
           -------------------------------------------------

          ...................................................
          :                      SETUP                      :
          :.................................................:
          :  # basis functions                  50          :
          :  # atomic orbitals                  50          :
          :  # shells                           30          :
          :  # electrons                        54          :
          :  max. iterations                   250          :
          :  Hamiltonian                  GFN2-xTB          :
          :  restarted?                      false          :
          :  GBSA solvation                   true          :
          :  PC potential                    false          :
          :  electronic temp.          300.0000000     K    :
          :  accuracy                    1.0000000          :
          :  -> integral cutoff          0.2500000E+02      :
          :  -> integral neglect         0.1000000E-07      :
          :  -> SCF convergence          0.1000000E-05 Eh   :
          :  -> wf. convergence          0.1000000E-03 e    :
          :  Broyden damping             0.4000000          :
          ...................................................

 iter      E             dE          RMSdq      gap      omega  full diag
   1    -30.7571335 -0.307571E+02  0.752E-05    4.08       0.0  T
   2    -30.7571335 -0.719780E-11  0.517E-05    4.08     432.9  T
   3    -30.7571335 -0.520473E-11  0.161E-05    4.08    1384.6  T

   *** convergence criteria satisfied after 3 iterations ***

         #    Occupation            Energy/Eh            Energy/eV
      -------------------------------------------------------------
         1        2.0000           -0.7160022             -19.4834
       ...           ...                  ...                  ...
        21        2.0000           -0.4599055             -12.5147
        22        2.0000           -0.4503676             -12.2551
        23        2.0000           -0.4441135             -12.0849
        24        2.0000           -0.4328635             -11.7788
        25        2.0000           -0.4257570             -11.5854
        26        2.0000           -0.3948099             -10.7433
        27        2.0000           -0.3673273              -9.9955 (HOMO)
        28                         -0.2172675              -5.9122 (LUMO)
        29                         -0.2127154              -5.7883
        30                         -0.0869418              -2.3658
        31                          0.0160441               0.4366
        32                          0.0353183               0.9611
       ...                                ...                  ...
        50                          0.6786731              18.4676
      -------------------------------------------------------------
                  HL-Gap            0.1500598 Eh            4.0833 eV
             Fermi-level           -0.2922974 Eh           -7.9538 eV

 SCC (total)                   0 d,  0 h,  0 min,  0.008 sec
 SCC setup                      ...        0 min,  0.000 sec (  4.676%)
 Dispersion                     ...        0 min,  0.000 sec (  0.596%)
 classical contributions        ...        0 min,  0.000 sec (  0.206%)
 integral evaluation            ...        0 min,  0.002 sec ( 22.869%)
 iterations                     ...        0 min,  0.002 sec ( 25.017%)
 molecular gradient             ...        0 min,  0.004 sec ( 44.742%)
 printout                       ...        0 min,  0.000 sec (  1.616%)

         :::::::::::::::::::::::::::::::::::::::::::::::::::::
         ::                     SUMMARY                     ::
         :::::::::::::::::::::::::::::::::::::::::::::::::::::
         :: total energy             -30.345613156151 Eh    ::
         :: total w/o Gsasa/hb       -30.345091341230 Eh    ::
         :: gradient norm              0.000260715718 Eh/a0 ::
         :: HOMO-LUMO gap              4.083333727196 eV    ::
         ::.................................................::
         :: SCC energy               -30.757133451166 Eh    ::
         :: -> isotropic ES            0.038425293234 Eh    ::
         :: -> anisotropic ES          0.004215241719 Eh    ::
         :: -> anisotropic XC          0.008720527660 Eh    ::
         :: -> dispersion             -0.015265496060 Eh    ::
         :: -> Gsolv                  -0.006803074120 Eh    ::
         ::    -> Gelec               -0.006281259199 Eh    ::
         ::    -> Gsasa               -0.000175712657 Eh    ::
         ::    -> Ghb                 -0.001426861962 Eh    ::
         ::    -> Gshift               0.001080759698 Eh    ::
         :: repulsion energy           0.411474680565 Eh    ::
         :: add. restraining           0.000000000000 Eh    ::
         :: total charge               0.000000000000 e     ::
         :::::::::::::::::::::::::::::::::::::::::::::::::::::

           ------------------------------------------------- 
          |                Numerical Hessian                |
           ------------------------------------------------- 
step length          :   0.00500
SCC accuracy         :   0.30000
Hessian scale factor :   1.00000
frozen atoms in %    :   0.00000    0
RMS gradient         :   0.00026
estimated CPU  time      0.02 min
estimated wall time      0.02 min

writing file <hessian>.

 projected vibrational frequencies (cm⁻¹)
eigval :       -0.00    -0.00     0.00     0.00     0.00     0.00
eigval :       81.92    99.30   155.38   171.81   224.11   251.24
eigval :      269.32   301.91   360.12   442.79   455.47   529.61
eigval :      560.50   562.89   669.41   772.73   774.56   791.25
eigval :      848.11   883.64   910.72  1015.05  1044.42  1100.88
eigval :     1113.95  1114.13  1117.34  1136.41  1148.36  1182.30
eigval :     1198.92  1249.95  1259.25  1353.63  1387.31  1388.88
eigval :     1438.23  1459.15  1459.69  1467.37  1471.73  1477.99
eigval :     1582.40  1589.21  2938.42  2938.72  2951.19  2952.02
eigval :     3034.01  3034.22  3088.59  3098.04  3112.94  3116.42
           -------------------------------------------------
          |                Property Printout                |
           -------------------------------------------------

    * Orbital Energies and Occupations

         #    Occupation            Energy/Eh            Energy/eV
      -------------------------------------------------------------
         1        2.0000           -0.7160022             -19.4834
       ...           ...                  ...                  ...
        15        2.0000           -0.5195349             -14.1373
        16        2.0000           -0.5003596             -13.6155
        17        2.0000           -0.4949083             -13.4671
        18        2.0000           -0.4854486             -13.2097
        19        2.0000           -0.4775559             -12.9950
        20        2.0000           -0.4617863             -12.5658
        21        2.0000           -0.4599055             -12.5147
        22        2.0000           -0.4503677             -12.2551
        23        2.0000           -0.4441135             -12.0849
        24        2.0000           -0.4328635             -11.7788
        25        2.0000           -0.4257569             -11.5854
        26        2.0000           -0.3948099             -10.7433
        27        2.0000           -0.3673273              -9.9955 (HOMO)
        28                         -0.2172675              -5.9121 (LUMO)
        29                         -0.2127154              -5.7883
        30                         -0.0869418              -2.3658
        31                          0.0160440               0.4366
        32                          0.0353183               0.9611
        33                          0.1151481               3.1333
        34                          0.1157849               3.1507
        35                          0.1247519               3.3947
        36                          0.1352487               3.6803
        37                          0.1685054               4.5853
        38                          0.1765985               4.8055
       ...                                ...                  ...
        50                          0.6786732              18.4676
      -------------------------------------------------------------
                  HL-Gap            0.1500598 Eh            4.0833 eV
             Fermi-level           -0.2922974 Eh           -7.9538 eV

     #   Z          covCN         q      C6AA      α(0)
     1   6 C        2.919    -0.051    29.256     8.870
     2   6 C        2.917    -0.075    29.873     8.963
     3   6 C        2.863     0.118    25.402     8.261
     4   6 C        2.863     0.118    25.402     8.261
     5   6 C        2.917    -0.075    29.873     8.963
     6   6 C        2.919    -0.051    29.256     8.870
     7   1 H        0.926     0.051     2.309     2.376
     8   1 H        0.926     0.046     2.369     2.407
     9   8 O        1.704    -0.301    19.004     5.886
    10   6 C        3.642     0.022    20.547     6.517
    11   1 H        0.924     0.054     2.267     2.355
    12   1 H        0.925     0.080     1.974     2.197
    13   1 H        0.924     0.054     2.267     2.355
    14   8 O        1.704    -0.301    19.004     5.886
    15   6 C        3.642     0.022    20.547     6.517
    16   1 H        0.924     0.054     2.267     2.355
    17   1 H        0.924     0.054     2.267     2.355
    18   1 H        0.925     0.080     1.974     2.197
    19   1 H        0.926     0.051     2.309     2.376
    20   1 H        0.926     0.046     2.369     2.407

 Mol. C6AA /au·bohr⁶  :       4149.775551
 Mol. C8AA /au·bohr⁸  :      96357.297085
 Mol. α(0) /au        :        100.373090


Wiberg/Mayer (AO) data.
largest (>0.10) Wiberg bond orders for each atom

 ---------------------------------------------------------------------------
     #   Z sym  total        # sym  WBO       # sym  WBO       # sym  WBO
 ---------------------------------------------------------------------------
     1   6 C    3.990 --     6 C    1.465     2 C    1.403    20 H    0.970
     2   6 C    3.985 --     3 C    1.413     1 C    1.403    19 H    0.964
     3   6 C    3.933 --     2 C    1.413     4 C    1.269    14 O    1.052
     4   6 C    3.933 --     5 C    1.413     3 C    1.269     9 O    1.052
     5   6 C    3.985 --     4 C    1.413     6 C    1.403     7 H    0.964
     6   6 C    3.990 --     1 C    1.465     5 C    1.403     8 H    0.970
     7   1 H    0.997 --     5 C    0.964
     8   1 H    0.998 --     6 C    0.970
     9   8 O    2.207 --     4 C    1.052    10 C    0.972
    10   6 C    3.931 --    12 H    0.977    11 H    0.976    13 H    0.976
                             9 O    0.972
    11   1 H    0.997 --    10 C    0.976
    12   1 H    0.993 --    10 C    0.977
    13   1 H    0.997 --    10 C    0.976
    14   8 O    2.207 --     3 C    1.052    15 C    0.972
    15   6 C    3.931 --    18 H    0.977    16 H    0.976    17 H    0.976
                            14 O    0.972
    16   1 H    0.997 --    15 C    0.976
    17   1 H    0.997 --    15 C    0.976
    18   1 H    0.993 --    15 C    0.977
    19   1 H    0.997 --     2 C    0.964
    20   1 H    0.998 --     1 C    0.970
 ---------------------------------------------------------------------------

Topologies differ in total number of bonds
Writing topology from bond orders to xtbtopo.mol

molecular dipole:
                 x           y           z       tot (Debye)
 q only:       -0.000       0.242       0.000
   full:       -0.000       0.324       0.000       0.823
molecular quadrupole (traceless):
                xx          xy          yy          xz          yz          zz
 q only:       10.705       0.003      -4.313      -0.000      -0.000      -6.393
  q+dip:       11.464       0.004      -4.465      -0.000      -0.000      -6.999
   full:       11.399       0.004      -5.671      -0.000      -0.000      -5.728

           -------------------------------------------------
          |                Geometry Summary                 |
           -------------------------------------------------

      molecular mass/u    :      138.1641045
   center of mass at/Å    :        0.0000050       0.0053972       0.0000002
  moments of inertia/u·Å² :        0.3048412E+03   0.3735470E+03   0.6719334E+03
rotational constants/cm⁻¹ :        0.5529972E-01   0.4512855E-01   0.2508825E-01

 * 20 selected distances

     #   Z          #   Z                                           value/Å
     1   6 C        2   6 C                                       1.3891482
     2   6 C        3   6 C                                       1.3836865
     3   6 C        4   6 C                                       1.4120177
     4   6 C        5   6 C                                       1.3836881
     1   6 C        6   6 C                                       1.3775319
     5   6 C        6   6 C                                       1.3891475
     5   6 C        7   1 H                                       1.0775634 (min)
     6   6 C        8   1 H                                       1.0785082
     4   6 C        9   8 O                                       1.3675559
     9   8 O       10   6 C                                       1.4141229
    10   6 C       11   1 H                                       1.0934023
    10   6 C       12   1 H                                       1.0875994
    10   6 C       13   1 H                                       1.0934023
     3   6 C       14   8 O                                       1.3675615
    14   8 O       15   6 C                                       1.4141257 (max)
    15   6 C       16   1 H                                       1.0934011
    15   6 C       17   1 H                                       1.0934011
    15   6 C       18   1 H                                       1.0875990
     2   6 C       19   1 H                                       1.0775640
     1   6 C       20   1 H                                       1.0785082

 * 3 distinct bonds (by element types)

   Z      Z             #   av. dist./Å        max./Å        min./Å
   1 H    6 C          10     1.0860949     1.0934023     1.0775634
   6 C    6 C           6     1.3892033     1.4120177     1.3775319
   6 C    8 O           4     1.3908415     1.4141257     1.3675559

           -------------------------------------------------
          |               Frequency Printout                |
           -------------------------------------------------
 projected vibrational frequencies (cm⁻¹)
eigval :       -0.00    -0.00     0.00     0.00     0.00     0.00
eigval :       81.92    99.30   155.38   171.81   224.11   251.24
eigval :      269.32   301.91   360.12   442.79   455.47   529.61
eigval :      560.50   562.89   669.41   772.73   774.56   791.25
eigval :      848.11   883.64   910.72  1015.05  1044.42  1100.88
eigval :     1113.95  1114.13  1117.34  1136.41  1148.36  1182.30
eigval :     1198.92  1249.95  1259.25  1353.63  1387.31  1388.88
eigval :     1438.23  1459.15  1459.69  1467.37  1471.73  1477.99
eigval :     1582.40  1589.21  2938.42  2938.72  2951.19  2952.02
eigval :     3034.01  3034.22  3088.59  3098.04  3112.94  3116.42
 reduced masses (amu)
   1: 10.76   2: 11.13   3: 11.64   4: 11.55   5: 12.13   6: 11.64   7: 10.09   8:  9.72
   9: 11.26  10: 10.69  11:  2.81  12:  3.06  13:  9.31  14:  9.54  15: 10.78  16:  9.83
  17: 12.75  18: 10.39  19: 11.87  20: 10.76  21: 11.85  22:  3.31  23: 11.34  24: 11.58
  25:  3.19  26:  3.94  27:  3.08  28: 11.87  29: 12.95  30:  6.30  31:  3.68  32:  3.68
  33: 10.16  34:  6.37  35:  4.96  36:  1.64  37:  5.68  38: 10.61  39:  4.00  40: 11.00
  41:  2.48  42:  2.68  43:  9.28  44:  1.55  45:  1.55  46:  5.69  47:  1.65  48:  6.14
  49: 11.54  50: 11.52  51:  1.96  52:  1.96  53:  1.44  54:  1.44  55:  1.70  56:  1.70
  57:  1.76  58:  1.84  59:  1.84  60:  1.88
 IR intensities (km·mol⁻¹)
   1:  0.08   2:  0.01   3:  0.01   4:  0.01   5:  0.00   6:  0.02   7: 15.37   8:  0.35
   9:  0.01  10:  4.01  11:  0.12  12:  0.00  13:  0.02  14:  6.01  15:  3.71  16:  1.86
  17:  0.47  18:  0.00  19: 12.84  20:  0.75  21:  0.00  22: 56.85  23:111.63  24: 17.49
  25:  0.00  26:  1.86  27:  0.00  28: 42.61  29:  0.48  30:  0.01  31:  4.89  32:  0.42
  33:301.68  34:122.70  35: 11.98  36: 12.35  37: 95.29  38:463.04  39:  4.74  40: 43.09
  41:  0.09  42:  3.03  43: 17.49  44:  1.65  45: 12.13  46:218.11  47: 14.09  48:105.61
  49:113.56  50:  1.24  51:  3.00  52: 92.95  53: 95.13  54:  2.28  55:  8.23  56: 24.12
  57: 13.51  58: 85.55  59:110.89  60: 19.03
 Raman intensities (amu)
   1:  0.00   2:  0.00   3:  0.00   4:  0.00   5:  0.00   6:  0.00   7:  0.00   8:  0.00
   9:  0.00  10:  0.00  11:  0.00  12:  0.00  13:  0.00  14:  0.00  15:  0.00  16:  0.00
  17:  0.00  18:  0.00  19:  0.00  20:  0.00  21:  0.00  22:  0.00  23:  0.00  24:  0.00
  25:  0.00  26:  0.00  27:  0.00  28:  0.00  29:  0.00  30:  0.00  31:  0.00  32:  0.00
  33:  0.00  34:  0.00  35:  0.00  36:  0.00  37:  0.00  38:  0.00  39:  0.00  40:  0.00
  41:  0.00  42:  0.00  43:  0.00  44:  0.00  45:  0.00  46:  0.00  47:  0.00  48:  0.00
  49:  0.00  50:  0.00  51:  0.00  52:  0.00  53:  0.00  54:  0.00  55:  0.00  56:  0.00
  57:  0.00  58:  0.00  59:  0.00  60:  0.00
 output can be read by thermo (or use thermo option).
 writing <g98.out> molden fake output.
 recommended (thermochemical) frequency scaling factor: 1.0
           -------------------------------------------------
          |             Thermodynamic Functions             |
           -------------------------------------------------

Molecule has the following symmetry elements: (C2) 2*(sigma) 
It seems to be the C2v point group
c2v symmetry found (for desy threshold:  0.10E+00) used in thermo

          ...................................................
          :                      SETUP                      :
          :.................................................:
          :  # frequencies                          54      :
          :  # imaginary freq.                       0      :
          :  linear?                             false      :
          :  only rotor calc.                    false      :
          :  symmetry                              c2v      :
          :  rotational number                       2      :
          :  scaling factor                  1.0000000      :
          :  rotor cutoff                   50.0000000 cm⁻¹ :
          :  imag. cutoff                  -20.0000000 cm⁻¹ :
          :.................................................:

    mode    ω/cm⁻¹     T·S(HO)/kcal·mol⁻¹    T·S(FR)/kcal·mol⁻¹   T·S(vib)
   ------------------------------------------------------------------------
       1     81.92    -1.14618 ( 87.81%)    -0.91015 ( 12.19%)    -1.11742
       2     99.30    -1.03399 ( 93.96%)    -0.85318 (  6.04%)    -1.02307
       3    155.38    -0.77676 ( 98.94%)    -0.72058 (  1.06%)    -0.77617
       4    171.81    -0.72022 ( 99.29%)    -0.69082 (  0.71%)    -0.72001
       5    224.11    -0.57412 ( 99.75%)    -0.61210 (  0.25%)    -0.57421
       6    251.24    -0.51337 ( 99.84%)    -0.57826 (  0.16%)    -0.51347
       7    269.32    -0.47720 ( 99.88%)    -0.55767 (  0.12%)    -0.47730
   ------------------------------------------------------------------------

   temp. (K)  partition function   enthalpy   heat capacity  entropy
                                   cal/mol     cal/K/mol   cal/K/mol   J/K/mol
 298.15  VIB   250.                 4370.579     30.871     25.495
         ROT  0.334E+06              888.752      2.981     28.257
         INT  0.834E+08             5259.331     33.852     53.752
         TR   0.157E+28             1481.254      4.968     40.663
         TOT                        6740.5849    38.8201    94.4156   395.0350

       T/K    H(0)-H(T)+PV         H(T)/Eh          T*S/Eh         G(T)/Eh
   ------------------------------------------------------------------------
    298.15    0.107418E-01    0.170528E+00    0.448599E-01    0.125668E+00
   ------------------------------------------------------------------------

         :::::::::::::::::::::::::::::::::::::::::::::::::::::
         ::                  THERMODYNAMIC                  ::
         :::::::::::::::::::::::::::::::::::::::::::::::::::::
         :: total free energy         -30.219945359630 Eh   ::
         ::.................................................::
         :: total energy              -30.345613156153 Eh   ::
         :: zero point energy           0.159785898270 Eh   ::
         :: G(RRHO) w/o ZPVE           -0.034118101746 Eh   ::
         :: G(RRHO) contrib.            0.125667796524 Eh   ::
         :::::::::::::::::::::::::::::::::::::::::::::::::::::

optimized geometry written to: xtbopt.xyz


           -------------------------------------------------
          | TOTAL ENERGY              -30.345613156153 Eh   |
          | TOTAL ENTHALPY            -30.175085452041 Eh   |
          | TOTAL FREE ENERGY         -30.219945359630 Eh   |
          | GRADIENT NORM               0.000260631062 Eh/α |
          | HOMO-LUMO GAP               4.083336188134 eV   |
           -------------------------------------------------

------------------------------------------------------------------------
 * finished run on 2021/11/15 at 09:36:22.538     
------------------------------------------------------------------------
 total:
 * wall-time:     0 d,  0 h,  0 min,  1.251 sec
 *  cpu-time:     0 d,  0 h,  0 min,  1.219 sec
 * ratio c/w:     0.974 speedup
 SCF:
 * wall-time:     0 d,  0 h,  0 min,  0.012 sec
 *  cpu-time:     0 d,  0 h,  0 min,  0.016 sec
 * ratio c/w:     1.272 speedup
 ANC optimizer:
 * wall-time:     0 d,  0 h,  0 min,  0.066 sec
 *  cpu-time:     0 d,  0 h,  0 min,  0.062 sec
 * ratio c/w:     0.946 speedup
 analytical hessian:
 * wall-time:     0 d,  0 h,  0 min,  1.135 sec
 *  cpu-time:     0 d,  0 h,  0 min,  1.125 sec
 * ratio c/w:     0.991 speedup

