 Entering Gaussian System
 *********************************************
 Gaussian 98:
 frequency output generated by the xtb code
 *********************************************
                         Standard orientation:
 --------------------------------------------------------------------
  Center     Atomic     Atomic              Coordinates (Angstroms)
  Number     Number      Type              X           Y           Z
 --------------------------------------------------------------------
    1          6             0       -0.689276    2.290099   -0.000001
    2          6             0       -1.386741    1.088735    0.000002
    3          6             0       -0.705978   -0.115902    0.000003
    4          6             0        0.706040   -0.115585   -0.000002
    5          6             0        1.386261    1.089360   -0.000006
    6          6             0        0.688256    2.290410   -0.000005
    7          1             0        2.463683    1.106811   -0.000010
    8          1             0        1.235629    3.219691   -0.000009
    9          8             0        1.290937   -1.351750   -0.000003
   10          6             0        2.703197   -1.424315   -0.000006
   11          1             0        3.123544   -0.957038    0.894694
   12          1             0        2.932762   -2.487410   -0.000005
   13          1             0        3.123540   -0.957041   -0.894710
   14          8             0       -1.290313   -1.352339    0.000006
   15          6             0       -2.702542   -1.425545    0.000014
   16          1             0       -3.123092   -0.958458    0.894717
   17          1             0       -3.123102   -0.958464   -0.894687
   18          1             0       -2.931622   -2.488745    0.000018
   19          1             0       -2.464171    1.105706    0.000006
   20          1             0       -1.237066    3.219133   -0.000001
 --------------------------------------------------------------------
     1 basis functions        1 primitive gaussians
     1 alpha electrons        1 beta electrons
 
 Harmonic frequencies (cm**-1), IR intensities (km*mol⁻¹),
 Raman scattering activities (A**4/amu), Raman depolarization ratios,
 reduced masses (AMU), force constants (mDyne/A) and normal coordinates:
                      1                      2                      3
                        a                      a                      a 
 Frequencies --    81.9206                99.2995               155.3800
 Red. masses --    10.0936                 9.7191                11.2640
 Frc consts  --     0.0000                 0.0000                 0.0000
 IR Inten    --    15.3716                 0.3508                 0.0103
 Raman Activ --     0.0000                 0.0000                 0.0000
 Depolar     --     0.0000                 0.0000                 0.0000
 Atom AN      X      Y      Z        X      Y      Z        X      Y      Z
   1   6     0.00   0.00   0.06    -0.00  -0.00  -0.20    -0.00  -0.00  -0.21
   2   6     0.00   0.00  -0.11    -0.00  -0.00  -0.34    -0.00  -0.00  -0.25
   3   6    -0.00  -0.00  -0.22    -0.00  -0.00  -0.13     0.00  -0.00   0.03
   4   6    -0.00  -0.00  -0.18     0.00   0.00   0.17     0.00  -0.00  -0.03
   5   6    -0.00  -0.00   0.00     0.00   0.00   0.35     0.00   0.00   0.24
   6   6     0.00   0.00   0.12     0.00   0.00   0.18     0.00   0.00   0.21
   7   1    -0.00  -0.00   0.02     0.00   0.00   0.18     0.00   0.00   0.12
   8   1     0.00   0.00   0.08    -0.00   0.00   0.10     0.00   0.00   0.12
   9   8    -0.00  -0.00  -0.34    -0.00   0.00   0.34     0.00  -0.00  -0.50
  10   6     0.00   0.00   0.37    -0.00  -0.00  -0.39     0.00   0.00   0.00
  11   1    -0.12  -0.01   0.17     0.12  -0.05  -0.15    -0.09  -0.13   0.11
  12   1     0.00   0.00   0.12    -0.00  -0.00  -0.19     0.00   0.00  -0.14
  13   1     0.12   0.01   0.17    -0.12   0.05  -0.15     0.09   0.13   0.11
  14   8    -0.00  -0.00  -0.39    -0.00  -0.00  -0.22     0.00  -0.00   0.53
  15   6     0.00   0.00   0.46     0.00   0.00   0.26    -0.00   0.00  -0.02
  16   1     0.15   0.01   0.20     0.08   0.06   0.08    -0.10   0.14  -0.12
  17   1    -0.15  -0.01   0.20    -0.08  -0.06   0.08     0.10  -0.14  -0.12
  18   1     0.00   0.00   0.18     0.00   0.00   0.17    -0.00   0.00   0.13
  19   1    -0.00  -0.00  -0.04    -0.00  -0.00  -0.18    -0.00  -0.00  -0.12
  20   1     0.00   0.00   0.04    -0.00  -0.00  -0.11    -0.00  -0.00  -0.12
                      4                      5                      6
                        a                      a                      a 
 Frequencies --   171.8067               224.1143               251.2397
 Red. masses --    10.6906                 2.8067                 3.0633
 Frc consts  --     0.0000                 0.0000                 0.0000
 IR Inten    --     4.0104                 0.1222                 0.0000
 Raman Activ --     0.0000                 0.0000                 0.0000
 Depolar     --     0.0000                 0.0000                 0.0000
 Atom AN      X      Y      Z        X      Y      Z        X      Y      Z
   1   6     0.00  -0.12   0.00    -0.00  -0.00  -0.20     0.00   0.00   0.16
   2   6     0.04  -0.13   0.00    -0.00  -0.00   0.13     0.00   0.00   0.15
   3   6    -0.00  -0.17  -0.00     0.00  -0.00   0.12    -0.00   0.00  -0.02
   4   6     0.00  -0.17  -0.00     0.00   0.00   0.13    -0.00  -0.00   0.02
   5   6    -0.04  -0.13  -0.00     0.00   0.00   0.15    -0.00  -0.00  -0.16
   6   6    -0.00  -0.12   0.00    -0.00  -0.00  -0.20     0.00  -0.00  -0.15
   7   1    -0.01  -0.03  -0.00     0.00   0.00   0.09    -0.00  -0.00  -0.06
   8   1     0.00  -0.04   0.00    -0.00   0.00  -0.11     0.00  -0.00  -0.08
   9   8     0.32  -0.06   0.00     0.00   0.00  -0.06    -0.00  -0.00   0.18
  10   6     0.31   0.37  -0.00     0.00  -0.00   0.01    -0.00   0.00   0.04
  11   1     0.05   0.14   0.00    -0.04  -0.32   0.19    -0.00  -0.31   0.18
  12   1     0.18   0.13   0.00    -0.00  -0.00  -0.38     0.00   0.00  -0.37
  13   1     0.05   0.14  -0.00     0.04   0.32   0.19     0.00   0.31   0.18
  14   8    -0.32  -0.06  -0.00    -0.00  -0.00  -0.07    -0.00   0.00  -0.18
  15   6    -0.31   0.37   0.00    -0.00   0.00   0.02    -0.00  -0.00  -0.04
  16   1    -0.05   0.14   0.00     0.04  -0.30   0.18    -0.01   0.32  -0.18
  17   1    -0.05   0.14  -0.00    -0.04   0.30   0.18     0.01  -0.32  -0.18
  18   1    -0.18   0.13   0.00    -0.00   0.00  -0.35     0.00  -0.00   0.38
  19   1     0.01  -0.03  -0.00     0.00  -0.00   0.08     0.00   0.00   0.05
  20   1    -0.00  -0.04   0.00    -0.00  -0.00  -0.12     0.00   0.00   0.09
                      7                      8                      9
                        a                      a                      a 
 Frequencies --   269.3241               301.9111               360.1155
 Red. masses --     9.3119                 9.5398                10.7849
 Frc consts  --     0.0000                 0.0000                 0.0000
 IR Inten    --     0.0182                 6.0119                 3.7055
 Raman Activ --     0.0000                 0.0000                 0.0000
 Depolar     --     0.0000                 0.0000                 0.0000
 Atom AN      X      Y      Z        X      Y      Z        X      Y      Z
   1   6     0.28   0.09  -0.00    -0.00  -0.00  -0.24    -0.00   0.15  -0.00
   2   6     0.06   0.19  -0.00     0.00   0.00   0.36     0.06   0.11  -0.00
   3   6    -0.15   0.07   0.00     0.00  -0.00   0.27    -0.04   0.03   0.00
   4   6    -0.15  -0.07   0.00     0.00   0.00   0.27     0.04   0.03  -0.00
   5   6     0.06  -0.19   0.00     0.00   0.00   0.36    -0.06   0.11   0.00
   6   6     0.28  -0.09   0.00    -0.00  -0.00  -0.24     0.00   0.15  -0.00
   7   1     0.02  -0.10   0.00     0.00   0.00   0.12    -0.02   0.01   0.00
   8   1     0.12  -0.05   0.00    -0.00  -0.00  -0.20     0.01   0.04  -0.00
   9   8    -0.12  -0.04  -0.00    -0.00   0.00  -0.31     0.35   0.13  -0.00
  10   6    -0.08   0.44  -0.00     0.00   0.00  -0.03     0.33  -0.33  -0.00
  11   1    -0.07   0.17   0.00    -0.03   0.15  -0.07     0.15  -0.15   0.00
  12   1     0.09   0.15  -0.00     0.00   0.00   0.18    -0.04  -0.12  -0.00
  13   1    -0.07   0.17  -0.00     0.03  -0.15  -0.07     0.15  -0.15  -0.00
  14   8    -0.12   0.04   0.00    -0.00  -0.00  -0.30    -0.35   0.13   0.00
  15   6    -0.08  -0.44   0.00    -0.00  -0.00  -0.03    -0.33  -0.33   0.00
  16   1    -0.07  -0.17  -0.00     0.03   0.15  -0.08    -0.15  -0.15   0.00
  17   1    -0.07  -0.17   0.00    -0.03  -0.15  -0.08    -0.15  -0.15  -0.00
  18   1     0.09  -0.15  -0.00     0.00   0.00   0.19     0.04  -0.12  -0.00
  19   1     0.02   0.10  -0.00     0.00   0.00   0.12     0.02   0.01  -0.00
  20   1     0.12   0.05  -0.00    -0.00  -0.00  -0.20    -0.01   0.04  -0.00
                     10                     11                     12
                        a                      a                      a 
 Frequencies --   442.7886               455.4672               529.6083
 Red. masses --     9.8325                12.7521                10.3932
 Frc consts  --     0.0000                 0.0000                 0.0000
 IR Inten    --     1.8592                 0.4700                 0.0001
 Raman Activ --     0.0000                 0.0000                 0.0000
 Depolar     --     0.0000                 0.0000                 0.0000
 Atom AN      X      Y      Z        X      Y      Z        X      Y      Z
   1   6     0.00  -0.00   0.10    -0.23   0.21   0.00     0.00   0.00   0.47
   2   6     0.00  -0.00  -0.32    -0.16   0.21  -0.00     0.00   0.00  -0.26
   3   6     0.00  -0.00   0.50     0.03   0.28   0.00    -0.00  -0.00  -0.33
   4   6     0.00   0.00   0.50     0.03  -0.28   0.00    -0.00  -0.00   0.34
   5   6     0.00   0.00  -0.32    -0.16  -0.21  -0.00    -0.00   0.00   0.26
   6   6     0.00   0.00   0.12    -0.23  -0.21   0.00    -0.00   0.00  -0.47
   7   1     0.00  -0.00  -0.32    -0.05   0.01  -0.00    -0.00  -0.00   0.09
   8   1     0.00   0.00  -0.01    -0.01  -0.09  -0.00    -0.00  -0.00  -0.26
   9   8    -0.00   0.00  -0.16     0.12  -0.41  -0.00    -0.00  -0.00  -0.14
  10   6    -0.00   0.00  -0.01     0.19  -0.03  -0.00    -0.00  -0.00  -0.02
  11   1    -0.03  -0.01   0.02     0.01   0.03  -0.00    -0.02   0.02  -0.01
  12   1    -0.00  -0.00  -0.01     0.14   0.01  -0.00    -0.00  -0.00   0.03
  13   1     0.03   0.01   0.02     0.01   0.03   0.00     0.02  -0.02  -0.01
  14   8    -0.00  -0.00  -0.16     0.12   0.41  -0.00     0.00  -0.00   0.14
  15   6    -0.00  -0.00  -0.00     0.19   0.03  -0.00     0.00   0.00   0.02
  16   1     0.03  -0.01   0.02     0.01  -0.03   0.00    -0.01  -0.02   0.01
  17   1    -0.03   0.01   0.02     0.01  -0.03  -0.00     0.01   0.02   0.01
  18   1    -0.00   0.00  -0.01     0.14  -0.01  -0.00    -0.00   0.00  -0.03
  19   1     0.00  -0.00  -0.33    -0.05  -0.01  -0.00     0.00   0.00  -0.10
  20   1     0.00  -0.00  -0.01    -0.01   0.09  -0.00     0.00   0.00   0.26
                     13                     14                     15
                        a                      a                      a 
 Frequencies --   560.4970               562.8916               669.4118
 Red. masses --    11.8730                10.7584                11.8521
 Frc consts  --     0.0000                 0.0000                 0.0000
 IR Inten    --    12.8406                 0.7539                 0.0004
 Raman Activ --     0.0000                 0.0000                 0.0000
 Depolar     --     0.0000                 0.0000                 0.0000
 Atom AN      X      Y      Z        X      Y      Z        X      Y      Z
   1   6    -0.01  -0.39   0.00    -0.11  -0.08   0.00    -0.00   0.00  -0.25
   2   6    -0.42  -0.09   0.00     0.22  -0.20  -0.00     0.00   0.00   0.28
   3   6    -0.04   0.19  -0.00     0.36  -0.01  -0.00    -0.00  -0.00  -0.59
   4   6     0.05   0.19   0.00     0.36   0.01  -0.00     0.00  -0.00   0.58
   5   6     0.42  -0.09  -0.00     0.22   0.20   0.00    -0.00   0.00  -0.28
   6   6     0.01  -0.39  -0.00    -0.11   0.08  -0.00     0.00   0.00   0.24
   7   1     0.12  -0.03   0.00     0.06   0.17   0.00    -0.00  -0.00  -0.09
   8   1    -0.09  -0.06   0.00    -0.09   0.06  -0.00     0.00   0.00   0.04
   9   8     0.05   0.29  -0.00    -0.17  -0.29   0.00     0.00  -0.00  -0.09
  10   6     0.04   0.01   0.00    -0.22   0.08   0.00     0.00  -0.00  -0.01
  11   1     0.05  -0.04   0.00    -0.12   0.09  -0.00    -0.01   0.00   0.00
  12   1    -0.08  -0.02   0.00     0.08   0.06  -0.00     0.00   0.00   0.00
  13   1     0.05  -0.04  -0.00    -0.12   0.09   0.00     0.01  -0.00   0.00
  14   8    -0.05   0.29   0.00    -0.17   0.29   0.00     0.00   0.00   0.09
  15   6    -0.04   0.01   0.00    -0.22  -0.08   0.00     0.00  -0.00   0.01
  16   1    -0.05  -0.04   0.00    -0.12  -0.09   0.00    -0.01  -0.00  -0.00
  17   1    -0.05  -0.04  -0.00    -0.12  -0.09  -0.00     0.01   0.00  -0.00
  18   1     0.08  -0.02   0.00     0.08  -0.06  -0.00     0.00  -0.00  -0.00
  19   1    -0.12  -0.03   0.00     0.06  -0.17   0.00     0.00   0.00   0.09
  20   1     0.09  -0.06   0.00    -0.09  -0.06   0.00    -0.00   0.00  -0.03
                     16                     17                     18
                        a                      a                      a 
 Frequencies --   772.7300               774.5594               791.2512
 Red. masses --     3.3101                11.3445                11.5824
 Frc consts  --     0.0000                 0.0000                 0.0000
 IR Inten    --    56.8465               111.6303                17.4940
 Raman Activ --     0.0000                 0.0000                 0.0000
 Depolar     --     0.0000                 0.0000                 0.0000
 Atom AN      X      Y      Z        X      Y      Z        X      Y      Z
   1   6    -0.00   0.00   0.18     0.04  -0.11   0.00    -0.23   0.44  -0.00
   2   6    -0.00   0.00   0.20     0.38  -0.21   0.00     0.21   0.16  -0.00
   3   6     0.00   0.00  -0.18     0.14  -0.10  -0.00     0.16   0.02   0.00
   4   6     0.00   0.00  -0.17    -0.14  -0.10  -0.00     0.16  -0.02   0.00
   5   6     0.00   0.00   0.19    -0.38  -0.21   0.00     0.21  -0.16  -0.00
   6   6    -0.00  -0.00   0.18    -0.04  -0.11   0.00    -0.23  -0.44  -0.00
   7   1     0.00   0.00  -0.41    -0.11  -0.14  -0.00     0.05   0.06   0.00
   8   1    -0.00  -0.00  -0.47     0.06  -0.08  -0.00     0.01  -0.16   0.00
   9   8    -0.00   0.00   0.05     0.02   0.39   0.00     0.00   0.30  -0.00
  10   6    -0.00   0.00   0.00    -0.13   0.07   0.00    -0.13   0.05  -0.00
  11   1    -0.00  -0.01   0.01     0.04  -0.05   0.00     0.00  -0.02   0.00
  12   1    -0.00   0.00  -0.02    -0.20  -0.02  -0.00    -0.13  -0.01   0.00
  13   1     0.00   0.01   0.01     0.04  -0.05  -0.00     0.00  -0.02  -0.00
  14   8     0.00  -0.00   0.05    -0.02   0.39   0.00     0.00  -0.30  -0.00
  15   6    -0.00  -0.00   0.00     0.13   0.07  -0.00    -0.13  -0.05   0.00
  16   1     0.00  -0.01   0.01    -0.04  -0.05   0.00     0.00   0.02  -0.00
  17   1    -0.00   0.01   0.01    -0.04  -0.05  -0.00     0.00   0.02   0.00
  18   1    -0.00   0.00  -0.02     0.20  -0.02  -0.00    -0.13   0.01   0.00
  19   1    -0.00   0.00  -0.41     0.11  -0.14  -0.00     0.05  -0.06   0.00
  20   1     0.00   0.00  -0.48    -0.06  -0.08  -0.00     0.01   0.16   0.00
                     19                     20                     21
                        a                      a                      a 
 Frequencies --   848.1112               883.6415               910.7238
 Red. masses --     3.1901                 3.9365                 3.0758
 Frc consts  --     0.0000                 0.0000                 0.0000
 IR Inten    --     0.0016                 1.8647                 0.0000
 Raman Activ --     0.0000                 0.0000                 0.0000
 Depolar     --     0.0000                 0.0000                 0.0000
 Atom AN      X      Y      Z        X      Y      Z        X      Y      Z
   1   6    -0.00   0.00  -0.13    -0.00   0.00  -0.24     0.00  -0.00   0.29
   2   6     0.00   0.00  -0.28     0.00   0.00   0.27    -0.00  -0.00  -0.06
   3   6     0.00   0.00  -0.00     0.00   0.00  -0.04    -0.00  -0.00  -0.08
   4   6     0.00  -0.00  -0.00     0.00  -0.00  -0.05     0.00   0.00   0.08
   5   6     0.00  -0.00   0.28     0.00  -0.00   0.28     0.00   0.00   0.07
   6   6    -0.00  -0.00   0.14    -0.00  -0.00  -0.23    -0.00   0.00  -0.29
   7   1    -0.00  -0.00  -0.60    -0.00  -0.00  -0.44    -0.00  -0.00  -0.23
   8   1    -0.00  -0.00  -0.20     0.00  -0.00   0.41     0.00   0.00   0.60
   9   8     0.00   0.00   0.01     0.00   0.00   0.01    -0.00  -0.00  -0.00
  10   6    -0.00   0.00  -0.00    -0.00   0.00  -0.00     0.00  -0.00  -0.00
  11   1    -0.01  -0.01   0.01    -0.01  -0.00   0.00    -0.01  -0.00   0.00
  12   1    -0.00  -0.00  -0.02    -0.00   0.00  -0.01     0.00  -0.00  -0.01
  13   1     0.01   0.01   0.01     0.01   0.00   0.00     0.01   0.00   0.00
  14   8     0.00  -0.00  -0.01     0.00  -0.00   0.01    -0.00   0.00  -0.00
  15   6    -0.00  -0.00   0.00    -0.00  -0.00  -0.00     0.00   0.00   0.00
  16   1    -0.01   0.01  -0.01     0.01  -0.00   0.00    -0.01   0.00  -0.00
  17   1     0.01  -0.01  -0.01    -0.01   0.00   0.00     0.01  -0.00  -0.00
  18   1    -0.00   0.00   0.02    -0.00  -0.00  -0.01     0.00   0.00   0.01
  19   1     0.00   0.00   0.61    -0.00  -0.00  -0.43     0.00   0.00   0.22
  20   1     0.00   0.00   0.18     0.00   0.00   0.43    -0.00  -0.00  -0.59
                     22                     23                     24
                        a                      a                      a 
 Frequencies --  1015.0464              1044.4186              1100.8782
 Red. masses --    11.8662                12.9458                 6.2969
 Frc consts  --     0.0000                 0.0000                 0.0000
 IR Inten    --    42.6091                 0.4785                 0.0076
 Raman Activ --     0.0000                 0.0000                 0.0000
 Depolar     --     0.0000                 0.0000                 0.0000
 Atom AN      X      Y      Z        X      Y      Z        X      Y      Z
   1   6    -0.10   0.12  -0.00    -0.03   0.09  -0.00    -0.26   0.27  -0.00
   2   6     0.27  -0.04  -0.00    -0.13   0.02   0.00    -0.21  -0.15   0.00
   3   6    -0.22  -0.20   0.00    -0.10  -0.14   0.00     0.07  -0.02  -0.00
   4   6    -0.22   0.20   0.00     0.10  -0.14   0.00    -0.07  -0.02   0.00
   5   6     0.27   0.04  -0.00     0.13   0.02  -0.00     0.21  -0.15  -0.00
   6   6    -0.10  -0.12   0.00     0.03   0.09  -0.00     0.26   0.27  -0.00
   7   1     0.07  -0.00  -0.00     0.04   0.06  -0.00     0.07  -0.42   0.00
   8   1    -0.09   0.01   0.00    -0.01   0.04   0.00     0.22  -0.00  -0.00
   9   8    -0.34  -0.03   0.00     0.46  -0.06  -0.00    -0.07  -0.05   0.00
  10   6     0.38  -0.08  -0.00    -0.44   0.07   0.00     0.06   0.11  -0.00
  11   1     0.02   0.03   0.00    -0.03  -0.02  -0.01     0.07  -0.06   0.02
  12   1     0.18   0.00  -0.00    -0.16   0.00   0.00    -0.12  -0.00   0.00
  13   1     0.02   0.03  -0.00    -0.03  -0.02   0.01     0.07  -0.06  -0.02
  14   8    -0.34   0.03   0.00    -0.46  -0.06   0.00     0.07  -0.05   0.00
  15   6     0.38   0.08  -0.00     0.44   0.07  -0.00    -0.06   0.11  -0.00
  16   1     0.02  -0.03  -0.00     0.03  -0.02  -0.01    -0.07  -0.06   0.02
  17   1     0.02  -0.03   0.00     0.03  -0.02   0.01    -0.07  -0.06  -0.02
  18   1     0.18  -0.00  -0.00     0.16   0.00  -0.00     0.12  -0.00  -0.00
  19   1     0.07   0.00  -0.00    -0.04   0.06   0.00    -0.07  -0.42   0.00
  20   1    -0.09  -0.01   0.00     0.01   0.04   0.00    -0.22  -0.00   0.00
                     25                     26                     27
                        a                      a                      a 
 Frequencies --  1113.9476              1114.1341              1117.3388
 Red. masses --     3.6771                 3.6818                10.1640
 Frc consts  --     0.0000                 0.0000                 0.0000
 IR Inten    --     4.8947                 0.4176               301.6767
 Raman Activ --     0.0000                 0.0000                 0.0000
 Depolar     --     0.0000                 0.0000                 0.0000
 Atom AN      X      Y      Z        X      Y      Z        X      Y      Z
   1   6     0.00  -0.00   0.00     0.00   0.00   0.00     0.10  -0.01  -0.00
   2   6    -0.00   0.00  -0.00    -0.00  -0.00  -0.00    -0.28  -0.03   0.00
   3   6     0.00   0.00  -0.00     0.00   0.00   0.00     0.27   0.12  -0.00
   4   6     0.00  -0.00   0.00     0.00  -0.00  -0.00     0.27  -0.12  -0.00
   5   6    -0.00   0.00  -0.00    -0.00   0.00  -0.00    -0.28   0.03   0.00
   6   6    -0.00  -0.00   0.00     0.00   0.00  -0.00     0.10   0.01  -0.00
   7   1    -0.00   0.00   0.02    -0.00   0.00  -0.01    -0.08   0.17  -0.00
   8   1     0.00  -0.00  -0.00     0.00  -0.00   0.00     0.25  -0.13  -0.00
   9   8    -0.00   0.00   0.19    -0.00   0.00  -0.11    -0.31   0.22  -0.00
  10   6     0.00  -0.00  -0.37     0.00  -0.00   0.20     0.20  -0.08   0.00
  11   1    -0.51   0.01   0.15     0.28  -0.00  -0.08    -0.04   0.05  -0.01
  12   1     0.00   0.00   0.20     0.00  -0.00  -0.11     0.11  -0.00  -0.00
  13   1     0.51  -0.01   0.15    -0.28   0.00  -0.08    -0.04   0.05   0.01
  14   8    -0.00  -0.00   0.11    -0.00  -0.00   0.19    -0.31  -0.22  -0.00
  15   6     0.00   0.00  -0.20     0.00   0.00  -0.37     0.20   0.08   0.00
  16   1     0.28   0.01   0.08     0.51   0.01   0.15    -0.04  -0.05   0.01
  17   1    -0.28  -0.01   0.08    -0.51  -0.01   0.15    -0.04  -0.05  -0.01
  18   1     0.00   0.00   0.11     0.00   0.00   0.20     0.11   0.00  -0.00
  19   1    -0.00   0.00   0.01    -0.00  -0.00   0.02    -0.08  -0.17   0.00
  20   1     0.00   0.00   0.00     0.00   0.00  -0.00     0.25   0.13  -0.00
                     28                     29                     30
                        a                      a                      a 
 Frequencies --  1136.4103              1148.3610              1182.3007
 Red. masses --     6.3701                 4.9574                 1.6364
 Frc consts  --     0.0000                 0.0000                 0.0000
 IR Inten    --   122.6953                11.9812                12.3544
 Raman Activ --     0.0000                 0.0000                 0.0000
 Depolar     --     0.0000                 0.0000                 0.0000
 Atom AN      X      Y      Z        X      Y      Z        X      Y      Z
   1   6    -0.01   0.09  -0.00    -0.06   0.05   0.00    -0.04  -0.00   0.00
   2   6    -0.03  -0.04   0.00    -0.02  -0.10   0.00    -0.04  -0.03   0.00
   3   6    -0.11  -0.19   0.00    -0.04   0.05  -0.00    -0.12  -0.03   0.00
   4   6    -0.11   0.19  -0.00     0.04   0.05  -0.00     0.12  -0.03  -0.00
   5   6    -0.03   0.04  -0.00     0.02  -0.10   0.00     0.04  -0.03  -0.00
   6   6    -0.01  -0.09   0.00     0.06   0.05  -0.00     0.04  -0.00  -0.00
   7   1    -0.01   0.01   0.00     0.01  -0.13   0.00     0.01   0.36  -0.00
   8   1     0.12  -0.09  -0.00     0.19  -0.08  -0.00     0.50  -0.28  -0.00
   9   8     0.24   0.07  -0.00     0.12   0.20  -0.00    -0.05   0.01   0.00
  10   6    -0.18  -0.26   0.00    -0.11  -0.27   0.00     0.05   0.04  -0.00
  11   1    -0.18   0.14  -0.03    -0.19   0.15  -0.03     0.03  -0.02  -0.00
  12   1     0.39   0.03  -0.00     0.41   0.03  -0.00    -0.10  -0.01   0.00
  13   1    -0.18   0.14   0.03    -0.19   0.15   0.03     0.03  -0.02   0.00
  14   8     0.24  -0.08  -0.00    -0.12   0.20   0.00     0.05   0.01  -0.00
  15   6    -0.18   0.26   0.00     0.11  -0.27  -0.00    -0.05   0.04   0.00
  16   1    -0.18  -0.14   0.03     0.19   0.15  -0.03    -0.03  -0.02  -0.00
  17   1    -0.18  -0.14  -0.03     0.19   0.15   0.03    -0.03  -0.02   0.00
  18   1     0.39  -0.03  -0.00    -0.41   0.03   0.00     0.10  -0.01  -0.00
  19   1    -0.01  -0.01  -0.00    -0.01  -0.13   0.00    -0.01   0.36  -0.00
  20   1     0.12   0.09  -0.00    -0.19  -0.08   0.00    -0.50  -0.28   0.00
                     31                     32                     33
                        a                      a                      a 
 Frequencies --  1198.9213              1249.9475              1259.2526
 Red. masses --     5.6839                10.6091                 3.9976
 Frc consts  --     0.0000                 0.0000                 0.0000
 IR Inten    --    95.2874               463.0449                 4.7402
 Raman Activ --     0.0000                 0.0000                 0.0000
 Depolar     --     0.0000                 0.0000                 0.0000
 Atom AN      X      Y      Z        X      Y      Z        X      Y      Z
   1   6     0.01   0.10   0.00    -0.08  -0.25   0.00    -0.13   0.00   0.00
   2   6    -0.03  -0.19   0.00     0.12   0.29  -0.00    -0.07  -0.10   0.00
   3   6    -0.14  -0.24   0.00     0.29   0.30  -0.00     0.20  -0.21  -0.00
   4   6    -0.14   0.24  -0.00    -0.29   0.30  -0.00     0.20   0.21  -0.00
   5   6    -0.03   0.19  -0.00    -0.12   0.29  -0.00    -0.07   0.10   0.00
   6   6     0.01  -0.10   0.00     0.08  -0.25  -0.00    -0.13  -0.00   0.00
   7   1    -0.01   0.30  -0.00    -0.04  -0.16   0.00    -0.01  -0.55   0.00
   8   1     0.34  -0.23  -0.00     0.17  -0.16  -0.00     0.19  -0.13  -0.00
   9   8     0.06  -0.23   0.00     0.15  -0.21   0.00    -0.06  -0.08   0.00
  10   6    -0.01   0.11  -0.00    -0.09   0.02   0.00     0.01   0.06  -0.00
  11   1     0.09  -0.06   0.01     0.04  -0.04   0.00     0.03  -0.05   0.02
  12   1    -0.16  -0.01   0.00     0.04   0.01  -0.00     0.02   0.02  -0.00
  13   1     0.09  -0.06  -0.01     0.04  -0.04  -0.00     0.03  -0.05  -0.02
  14   8     0.06   0.23  -0.00    -0.15  -0.21   0.00    -0.06   0.08   0.00
  15   6    -0.01  -0.11   0.00     0.09   0.02  -0.00     0.01  -0.06   0.00
  16   1     0.09   0.06  -0.01    -0.04  -0.04   0.00     0.03   0.05  -0.02
  17   1     0.09   0.06   0.01    -0.04  -0.04  -0.00     0.03   0.05   0.02
  18   1    -0.16   0.01   0.00    -0.04   0.01   0.00     0.02  -0.02  -0.00
  19   1    -0.01  -0.30   0.00     0.04  -0.16  -0.00    -0.01   0.55  -0.00
  20   1     0.34   0.23  -0.00    -0.17  -0.16   0.00     0.19   0.13  -0.00
                     34                     35                     36
                        a                      a                      a 
 Frequencies --  1353.6331              1387.3108              1388.8767
 Red. masses --    10.9954                 2.4816                 2.6781
 Frc consts  --     0.0000                 0.0000                 0.0000
 IR Inten    --    43.0939                 0.0930                 3.0260
 Raman Activ --     0.0000                 0.0000                 0.0000
 Depolar     --     0.0000                 0.0000                 0.0000
 Atom AN      X      Y      Z        X      Y      Z        X      Y      Z
   1   6    -0.38  -0.07   0.00     0.04   0.03  -0.00     0.06  -0.02  -0.00
   2   6    -0.09   0.21  -0.00    -0.03   0.02   0.00     0.03   0.04  -0.00
   3   6     0.34  -0.33  -0.00     0.03  -0.01  -0.00    -0.05   0.07   0.00
   4   6    -0.34  -0.33   0.00     0.03   0.01   0.00     0.05   0.07  -0.00
   5   6     0.09   0.21  -0.00    -0.03  -0.02   0.00    -0.03   0.04   0.00
   6   6     0.38  -0.07  -0.00     0.04  -0.03  -0.00    -0.06  -0.02   0.00
   7   1     0.03   0.17  -0.00    -0.01   0.05  -0.00    -0.01  -0.10   0.00
   8   1    -0.04   0.07   0.00    -0.05   0.02   0.00     0.02  -0.03  -0.00
   9   8    -0.03   0.13  -0.00    -0.09   0.02   0.00     0.09  -0.05  -0.00
  10   6     0.06  -0.07  -0.00    -0.22   0.04   0.00     0.21  -0.03  -0.00
  11   1    -0.07   0.06  -0.00     0.34  -0.13  -0.09    -0.33   0.12   0.10
  12   1    -0.03  -0.02   0.00     0.38   0.09  -0.00    -0.38  -0.09   0.00
  13   1    -0.07   0.06   0.00     0.34  -0.13   0.09    -0.33   0.12  -0.10
  14   8     0.03   0.13  -0.00    -0.09  -0.02   0.00    -0.09  -0.05   0.00
  15   6    -0.06  -0.07   0.00    -0.22  -0.05   0.00    -0.21  -0.03   0.00
  16   1     0.07   0.06  -0.00     0.34   0.13   0.09     0.33   0.12   0.10
  17   1     0.07   0.06   0.00     0.34   0.13  -0.09     0.33   0.12  -0.10
  18   1     0.03  -0.02  -0.00     0.38  -0.09  -0.00     0.37  -0.09  -0.00
  19   1    -0.03   0.17  -0.00    -0.01  -0.05   0.00     0.01  -0.10   0.00
  20   1     0.04   0.07   0.00    -0.05  -0.02   0.00    -0.02  -0.03   0.00
                     37                     38                     39
                        a                      a                      a 
 Frequencies --  1438.2282              1459.1476              1459.6924
 Red. masses --     9.2779                 1.5480                 1.5481
 Frc consts  --     0.0000                 0.0000                 0.0000
 IR Inten    --    17.4897                 1.6538                12.1322
 Raman Activ --     0.0000                 0.0000                 0.0000
 Depolar     --     0.0000                 0.0000                 0.0000
 Atom AN      X      Y      Z        X      Y      Z        X      Y      Z
   1   6     0.25   0.32  -0.00     0.00   0.00   0.00    -0.00   0.00  -0.00
   2   6    -0.27   0.01   0.00    -0.00   0.00   0.00     0.00  -0.00  -0.00
   3   6     0.15  -0.32   0.00     0.00  -0.00  -0.00     0.00   0.00   0.00
   4   6     0.15   0.32  -0.00     0.00   0.00   0.00    -0.00   0.00   0.00
   5   6    -0.27  -0.01   0.00    -0.00  -0.00  -0.00     0.00  -0.00  -0.00
   6   6     0.25  -0.32  -0.00     0.00  -0.00  -0.00     0.00   0.00  -0.00
   7   1    -0.08   0.04   0.00    -0.00   0.00   0.01     0.00   0.00   0.02
   8   1    -0.31   0.13   0.00    -0.00   0.00  -0.00    -0.00   0.00   0.00
   9   8    -0.01  -0.09   0.00    -0.00  -0.00   0.01     0.00  -0.00   0.03
  10   6     0.04   0.03  -0.00     0.00   0.00   0.09     0.00  -0.00   0.20
  11   1    -0.04  -0.02   0.04    -0.10   0.17  -0.04    -0.21   0.36  -0.08
  12   1    -0.05  -0.01   0.00    -0.00  -0.00  -0.30    -0.00  -0.00  -0.65
  13   1    -0.04  -0.02  -0.04     0.10  -0.17  -0.04     0.21  -0.36  -0.08
  14   8    -0.01   0.09   0.00    -0.00   0.00  -0.03    -0.00  -0.00   0.01
  15   6     0.04  -0.03   0.00    -0.00  -0.00  -0.20     0.00  -0.00   0.09
  16   1    -0.04   0.02  -0.04    -0.21  -0.36   0.08     0.10   0.17  -0.04
  17   1    -0.04   0.02   0.04     0.21   0.36   0.08    -0.10  -0.17  -0.04
  18   1    -0.05   0.01  -0.00     0.00   0.00   0.65    -0.00  -0.00  -0.30
  19   1    -0.08  -0.04   0.00    -0.00   0.00  -0.02     0.00   0.00   0.01
  20   1    -0.31  -0.13   0.00    -0.00  -0.00   0.00     0.00   0.00   0.00
                     40                     41                     42
                        a                      a                      a 
 Frequencies --  1467.3734              1471.7294              1477.9936
 Red. masses --     5.6928                 1.6469                 6.1394
 Frc consts  --     0.0000                 0.0000                 0.0000
 IR Inten    --   218.1125                14.0916               105.6123
 Raman Activ --     0.0000                 0.0000                 0.0000
 Depolar     --     0.0000                 0.0000                 0.0000
 Atom AN      X      Y      Z        X      Y      Z        X      Y      Z
   1   6     0.03  -0.09  -0.00    -0.01  -0.02   0.00     0.05  -0.10  -0.00
   2   6     0.01   0.27  -0.00     0.02  -0.00  -0.00     0.01   0.31  -0.00
   3   6    -0.23  -0.22   0.00    -0.03   0.05   0.00    -0.26  -0.19   0.00
   4   6     0.23  -0.22  -0.00    -0.03  -0.05   0.00     0.26  -0.19  -0.00
   5   6    -0.01   0.27  -0.00     0.02   0.00  -0.00    -0.01   0.31  -0.00
   6   6    -0.03  -0.09   0.00    -0.01   0.02  -0.00    -0.05  -0.10   0.00
   7   1     0.01  -0.14   0.00     0.01   0.05  -0.00     0.00  -0.24   0.00
   8   1     0.04  -0.05  -0.00     0.02  -0.01  -0.00     0.05  -0.07  -0.00
   9   8    -0.06   0.10   0.00     0.02   0.04  -0.00    -0.08   0.04   0.00
  10   6     0.01   0.12   0.00     0.02   0.14  -0.00    -0.02  -0.08   0.00
  11   1    -0.12  -0.26   0.19    -0.18  -0.33   0.26     0.14   0.21  -0.18
  12   1     0.17   0.05  -0.00     0.21   0.05  -0.00    -0.12  -0.03   0.00
  13   1    -0.12  -0.26  -0.19    -0.18  -0.33  -0.26     0.14   0.21   0.18
  14   8     0.06   0.10  -0.00     0.02  -0.04  -0.00     0.08   0.04  -0.00
  15   6    -0.01   0.12   0.00     0.02  -0.14   0.00     0.02  -0.08  -0.00
  16   1     0.12  -0.26   0.19    -0.18   0.33  -0.26    -0.14   0.21  -0.18
  17   1     0.12  -0.26  -0.19    -0.18   0.33   0.26    -0.14   0.21   0.18
  18   1    -0.17   0.05  -0.00     0.21  -0.05   0.00     0.12  -0.03   0.00
  19   1    -0.01  -0.14   0.00     0.01  -0.05   0.00    -0.00  -0.24   0.00
  20   1    -0.04  -0.05   0.00     0.02   0.01  -0.00    -0.05  -0.07   0.00
                     43                     44                     45
                        a                      a                      a 
 Frequencies --  1582.3979              1589.2070              2938.4217
 Red. masses --    11.5372                11.5186                 1.9565
 Frc consts  --     0.0000                 0.0000                 0.0000
 IR Inten    --   113.5650                 1.2415                 2.9954
 Raman Activ --     0.0000                 0.0000                 0.0000
 Depolar     --     0.0000                 0.0000                 0.0000
 Atom AN      X      Y      Z        X      Y      Z        X      Y      Z
   1   6     0.12   0.27  -0.00     0.51   0.12  -0.00     0.00   0.00  -0.00
   2   6     0.00  -0.52   0.00    -0.21   0.07   0.00     0.00  -0.00   0.00
   3   6    -0.11   0.32  -0.00     0.35  -0.18  -0.00     0.00   0.00   0.00
   4   6    -0.11  -0.32   0.00    -0.35  -0.18   0.00    -0.00  -0.00  -0.00
   5   6     0.00   0.52  -0.00     0.21   0.07  -0.00     0.00   0.00  -0.00
   6   6     0.12  -0.27   0.00    -0.51   0.12   0.00     0.00  -0.00   0.00
   7   1     0.01  -0.13   0.00     0.06  -0.05  -0.00    -0.00   0.00  -0.00
   8   1    -0.07  -0.01   0.00     0.08  -0.10  -0.00    -0.00  -0.00   0.00
   9   8     0.01   0.03  -0.00     0.01   0.04  -0.00    -0.00   0.00   0.00
  10   6    -0.01  -0.01   0.00     0.00  -0.02   0.00     0.00   0.00   0.17
  11   1     0.01   0.01  -0.01    -0.00   0.00  -0.00    -0.15  -0.18  -0.31
  12   1     0.01   0.00  -0.00     0.02  -0.00  -0.00     0.00   0.00   0.03
  13   1     0.01   0.01   0.01    -0.00   0.00   0.00     0.15   0.18  -0.31
  14   8     0.01  -0.03  -0.00    -0.01   0.04  -0.00    -0.00  -0.00  -0.00
  15   6    -0.01   0.01   0.00    -0.00  -0.02   0.00    -0.00   0.00  -0.24
  16   1     0.01  -0.01   0.01     0.00   0.00  -0.00    -0.21   0.26   0.44
  17   1     0.01  -0.01  -0.01     0.00   0.00   0.00     0.21  -0.26   0.44
  18   1     0.01  -0.00  -0.00    -0.02  -0.00   0.00    -0.00  -0.00  -0.04
  19   1     0.01   0.13  -0.00    -0.06  -0.05   0.00    -0.00  -0.00   0.00
  20   1    -0.07   0.01   0.00    -0.08  -0.10   0.00    -0.00   0.00  -0.00
                     46                     47                     48
                        a                      a                      a 
 Frequencies --  2938.7183              2951.1895              2952.0228
 Red. masses --     1.9568                 1.4369                 1.4386
 Frc consts  --     0.0000                 0.0000                 0.0000
 IR Inten    --    92.9539                95.1277                 2.2766
 Raman Activ --     0.0000                 0.0000                 0.0000
 Depolar     --     0.0000                 0.0000                 0.0000
 Atom AN      X      Y      Z        X      Y      Z        X      Y      Z
   1   6    -0.00  -0.00  -0.00     0.00   0.00  -0.00     0.00  -0.00   0.00
   2   6     0.00   0.00   0.00     0.00  -0.00  -0.00     0.00   0.00  -0.00
   3   6     0.00   0.00   0.00     0.00   0.00  -0.00     0.00   0.00  -0.00
   4   6    -0.00   0.00   0.00     0.00  -0.00   0.00    -0.00   0.00   0.00
   5   6    -0.00  -0.00   0.00     0.00   0.00  -0.00    -0.00   0.00   0.00
   6   6     0.00  -0.00  -0.00     0.00  -0.00   0.00    -0.00  -0.00   0.00
   7   1     0.00  -0.00   0.00    -0.01   0.00   0.00     0.01  -0.00  -0.00
   8   1    -0.00  -0.00   0.00    -0.00  -0.00   0.00     0.00   0.00  -0.00
   9   8     0.00  -0.00  -0.00    -0.02  -0.00   0.00     0.01   0.00  -0.00
  10   6    -0.00  -0.00  -0.24    -0.08  -0.11   0.00     0.08   0.11   0.00
  11   1     0.21   0.26   0.44     0.18   0.20   0.42    -0.17  -0.19  -0.41
  12   1    -0.00  -0.00  -0.04    -0.01  -0.00  -0.00     0.01  -0.00   0.00
  13   1    -0.21  -0.26   0.44     0.18   0.20  -0.42    -0.17  -0.19   0.41
  14   8    -0.00  -0.00  -0.00    -0.01   0.00   0.00    -0.01   0.00   0.00
  15   6    -0.00   0.00  -0.17    -0.08   0.11   0.00    -0.08   0.11   0.00
  16   1    -0.15   0.18   0.31     0.17  -0.19  -0.41     0.18  -0.20  -0.42
  17   1     0.15  -0.18   0.31     0.17  -0.19   0.41     0.18  -0.20   0.42
  18   1    -0.00  -0.00  -0.03    -0.01   0.00   0.00    -0.01  -0.00   0.00
  19   1    -0.00  -0.00   0.00    -0.01  -0.00   0.00    -0.01  -0.00   0.00
  20   1     0.00  -0.00   0.00    -0.00   0.00   0.00    -0.00   0.00   0.00
                     49                     50                     51
                        a                      a                      a 
 Frequencies --  3034.0090              3034.2183              3088.5862
 Red. masses --     1.7029                 1.7011                 1.7626
 Frc consts  --     0.0000                 0.0000                 0.0000
 IR Inten    --     8.2332                24.1190                13.5062
 Raman Activ --     0.0000                 0.0000                 0.0000
 Depolar     --     0.0000                 0.0000                 0.0000
 Atom AN      X      Y      Z        X      Y      Z        X      Y      Z
   1   6     0.00  -0.00  -0.00     0.00  -0.00  -0.00    -0.09   0.16   0.00
   2   6     0.00  -0.00  -0.00    -0.00   0.00   0.00     0.03   0.00  -0.00
   3   6    -0.00  -0.00  -0.00     0.00   0.00   0.00     0.00  -0.00  -0.00
   4   6    -0.00   0.00   0.00    -0.00   0.00   0.00     0.00   0.00   0.00
   5   6     0.00   0.00  -0.00     0.00   0.00  -0.00     0.03  -0.00  -0.00
   6   6     0.00   0.00   0.00    -0.00  -0.00   0.00    -0.09  -0.16   0.00
   7   1    -0.01   0.00   0.00    -0.00   0.00   0.00    -0.12  -0.00   0.00
   8   1    -0.00  -0.00   0.00     0.00   0.00  -0.00     0.34   0.58  -0.00
   9   8     0.01  -0.00  -0.00     0.01  -0.00  -0.00     0.00  -0.00   0.00
  10   6     0.04  -0.18   0.00     0.04  -0.17   0.00     0.00   0.00   0.00
  11   1    -0.00  -0.03  -0.01    -0.00  -0.03  -0.01    -0.00  -0.00  -0.00
  12   1    -0.14   0.67  -0.00    -0.14   0.66  -0.00     0.00  -0.00  -0.00
  13   1    -0.00  -0.03   0.01    -0.00  -0.03   0.01    -0.00  -0.00   0.00
  14   8     0.01   0.00  -0.00    -0.01  -0.00   0.00     0.00   0.00   0.00
  15   6     0.03   0.17  -0.00    -0.04  -0.18   0.00     0.00  -0.00  -0.00
  16   1    -0.00   0.03   0.01     0.00  -0.03  -0.01    -0.00   0.00   0.00
  17   1    -0.00   0.03  -0.01     0.00  -0.03   0.01    -0.00   0.00  -0.00
  18   1    -0.14  -0.66   0.00     0.14   0.67  -0.00     0.00   0.00  -0.00
  19   1    -0.01  -0.00   0.00     0.00   0.00  -0.00    -0.12   0.00   0.00
  20   1    -0.00   0.00   0.00    -0.00   0.00   0.00     0.34  -0.58  -0.00
                     52                     53                     54
                        a                      a                      a 
 Frequencies --  3098.0377              3112.9366              3116.4216
 Red. masses --     1.8406                 1.8406                 1.8812
 Frc consts  --     0.0000                 0.0000                 0.0000
 IR Inten    --    85.5544               110.8939                19.0291
 Raman Activ --     0.0000                 0.0000                 0.0000
 Depolar     --     0.0000                 0.0000                 0.0000
 Atom AN      X      Y      Z        X      Y      Z        X      Y      Z
   1   6     0.09  -0.15  -0.00     0.02  -0.03  -0.00     0.05  -0.08  -0.00
   2   6    -0.08   0.00   0.00     0.19  -0.00  -0.00     0.18  -0.00  -0.00
   3   6    -0.00  -0.00   0.00     0.00   0.01  -0.00     0.01   0.01  -0.00
   4   6     0.00  -0.00  -0.00     0.00  -0.01   0.00    -0.01   0.01  -0.00
   5   6     0.08   0.00  -0.00     0.19   0.00  -0.00    -0.18  -0.00   0.00
   6   6    -0.09  -0.15   0.00     0.02   0.03  -0.00    -0.05  -0.08   0.00
   7   1    -0.30  -0.00   0.00    -0.67  -0.01   0.00     0.61   0.01  -0.00
   8   1     0.31   0.52  -0.00    -0.06  -0.10   0.00     0.15   0.26  -0.00
   9   8     0.00  -0.00   0.00     0.00   0.00  -0.00    -0.00  -0.00   0.00
  10   6    -0.00   0.00  -0.00     0.00   0.00  -0.00    -0.00  -0.00  -0.00
  11   1    -0.00  -0.00  -0.00    -0.00  -0.00  -0.00     0.00   0.00   0.00
  12   1     0.00  -0.00   0.00     0.00  -0.01   0.00     0.00   0.00   0.00
  13   1    -0.00  -0.00   0.00    -0.00  -0.00   0.00     0.00   0.00  -0.00
  14   8    -0.00  -0.00   0.00     0.00  -0.00  -0.00     0.00  -0.00   0.00
  15   6     0.00   0.00  -0.00     0.00  -0.00   0.00     0.00  -0.00  -0.00
  16   1     0.00  -0.00  -0.00    -0.00   0.00   0.00    -0.00   0.00   0.00
  17   1     0.00  -0.00   0.00    -0.00   0.00  -0.00    -0.00   0.00  -0.00
  18   1    -0.00  -0.00   0.00     0.00   0.01  -0.00    -0.00   0.00  -0.00
  19   1     0.30  -0.00  -0.00    -0.67   0.01   0.00    -0.61   0.01   0.00
  20   1    -0.31   0.52   0.00    -0.06   0.10   0.00    -0.15   0.26   0.00
