20
 energy: -30.345613156151 gnorm: 0.000260715718 xtb: 6.4.1 (afa7bdf)
C        -0.68927580189876    2.29009872151320   -0.00000133526441
C        -1.38674090728583    1.08873483351728    0.00000240091431
C        -0.70597769866566   -0.11590190380657    0.00000255402353
C         0.70603994921884   -0.11558486747451   -0.00000232051849
C         1.38626066732943    1.08936017138393   -0.00000644380696
C         0.68825609311414    2.29040987835230   -0.00000546576790
H         2.46368274565903    1.10681069839241   -0.00000977854485
H         1.23562915642677    3.21969056264274   -0.00000912453703
O         1.29093703765941   -1.35175017394047   -0.00000277250738
C         2.70319695952470   -1.42431475351593   -0.00000641152739
H         3.12354445910105   -0.95703801128265    0.89469404650282
H         2.93276217296887   -2.48741035086220   -0.00000548183228
H         3.12353984990539   -0.95704056046225   -0.89471037093607
O        -1.29031252963913   -1.35233927615540    0.00000592049520
C        -2.70254211369429   -1.42554474768629    0.00001409039824
H        -3.12309193555619   -0.95845836241128    0.89471740256609
H        -3.12310231857910   -0.95846355824172   -0.89468708282107
H        -2.93162205120673   -2.48874462722963    0.00001846096011
H        -2.46417123159282    1.10570585352813    0.00000607506310
H        -1.23706622309143    3.21913347405634   -0.00000078920721
