      -----------------------------------------------------------      
     |                   =====================                   |     
     |                           x T B                           |     
     |                   =====================                   |     
     |                         S. Grimme                         |     
     |          Mulliken Center for Theoretical Chemistry        |     
     |                    University of Bonn                     |     
      -----------------------------------------------------------      

   * xtb version 6.4.1 (afa7bdf) compiled by 'ehlert@majestix' on 2021-06-10

   xtb is free software: you can redistribute it and/or modify it under
   the terms of the GNU Lesser General Public License as published by
   the Free Software Foundation, either version 3 of the License, or
   (at your option) any later version.
   
   xtb is distributed in the hope that it will be useful,
   but WITHOUT ANY WARRANTY; without even the implied warranty of
   MERCHANTABILITY or FITNESS FOR A PARTICULAR PURPOSE.  See the
   GNU Lesser General Public License for more details.
   
   Cite this work as:
   * C. Bannwarth, E. Caldeweyher, S. Ehlert, A. Hansen, P. Pracht,
     J. Seibert, S. Spicher, S. Grimme, WIREs Comput. Mol. Sci., 2020, 11,
     e01493. DOI: 10.1002/wcms.1493
   
   for GFN2-xTB:
   * C. Bannwarth, S. Ehlert and S. Grimme., J. Chem. Theory Comput., 2019,
     15, 1652-1671. DOI: 10.1021/acs.jctc.8b01176
   for GFN1-xTB:
   * S. Grimme, C. Bannwarth, P. Shushkov, J. Chem. Theory Comput., 2017,
     13, 1989-2009. DOI: 10.1021/acs.jctc.7b00118
   for GFN0-xTB:
   * P. Pracht, E. Caldeweyher, S. Ehlert, S. Grimme, ChemRxiv, 2019, preprint.
     DOI: 10.26434/chemrxiv.8326202.v1
   for GFN-FF:
   * S. Spicher and S. Grimme, Angew. Chem. Int. Ed., 2020, 59, 15665-15673.
     DOI: 10.1002/anie.202004239
   
   for DFT-D4:
   * E. Caldeweyher, C. Bannwarth and S. Grimme, J. Chem. Phys., 2017,
     147, 034112. DOI: 10.1063/1.4993215
   * E. Caldeweyher, S. Ehlert, A. Hansen, H. Neugebauer, S. Spicher,
     C. Bannwarth and S. Grimme, J. Chem. Phys., 2019, 150, 154122.
     DOI: 10.1063/1.5090222
   * E. Caldeweyher, J.-M. Mewes, S. Ehlert and S. Grimme, Phys. Chem. Chem. Phys.
     2020, 22, 8499-8512. DOI: 10.1039/D0CP00502A
   
   for sTDA-xTB:
   * S. Grimme and C. Bannwarth, J. Chem. Phys., 2016, 145, 054103.
     DOI: 10.1063/1.4959605
   
   in the mass-spec context:
   * V. Asgeirsson, C. Bauer and S. Grimme, Chem. Sci., 2017, 8, 4879.
     DOI: 10.1039/c7sc00601b
   * J. Koopman and S. Grimme, ACS Omega 2019, 4, 12, 15120-15133.
     DOI: 10.1021/acsomega.9b02011
   
   for metadynamics refer to:
   * S. Grimme, J. Chem. Theory Comput., 2019, 155, 2847-2862
     DOI: 10.1021/acs.jctc.9b00143
   
   for SPH calculations refer to:
   * S. Spicher and S. Grimme, J. Chem. Theory Comput., 2021, 17, 1701-1714
     DOI: 10.1021/acs.jctc.0c01306
   
   with help from (in alphabetical order)
   P. Atkinson, C. Bannwarth, F. Bohle, G. Brandenburg, E. Caldeweyher
   M. Checinski, S. Dohm, S. Ehlert, S. Ehrlich, I. Gerasimov, J. Koopman
   C. Lavigne, S. Lehtola, F. März, M. Müller, F. Musil, H. Neugebauer
   J. Pisarek, C. Plett, P. Pracht, J. Seibert, P. Shushkov, S. Spicher
   M. Stahn, M. Steiner, T. Strunk, J. Stückrath, T. Rose, and J. Unsleber
   
 * started run on 2021/11/15 at 09:36:27.152     

           -------------------------------------------------
          |                Calculation Setup                |
           -------------------------------------------------

          program call               : xtb 43_L-tyrosine.xyz --gfn2 --chrg 0 --uhf 0 --alpb water --ohess -P 1
          coordinate file            : 43_L-tyrosine.xyz
          omp threads                :                     1
          number of atoms            :                    24
          number of electrons        :                    70
          charge                     :                     0
          spin                       :                   0.0
          first test random number   :      0.82020141171157

   ID    Z sym.   atoms
    1    8 O      1-3
    2    7 N      4
    3    6 C      5-13
    4    1 H      14-24

           -------------------------------------------------
          |                 G F N 2 - x T B                 |
           -------------------------------------------------

        Reference                      10.1021/acs.jctc.8b01176
      * Hamiltonian:
        H0-scaling (s, p, d)           1.850000    2.230000    2.230000
        zeta-weighting                 0.500000
      * Dispersion:
        s8                             2.700000
        a1                             0.520000
        a2                             5.000000
        s9                             5.000000
      * Repulsion:
        kExp                           1.500000    1.000000
        rExp                           1.000000
      * Coulomb:
        alpha                          2.000000
        third order                    shell-resolved
        anisotropic                    true
        a3                             3.000000
        a5                             4.000000
        cn-shift                       1.200000
        cn-exp                         4.000000
        max-rad                        5.000000

      * Solvation model:               ALPB
        Solvent                        water
        Parameter file                 internal GFN2-xTB/ALPB
        Dielectric constant                8.0200E+01
        Reference state                gsolv [1 M gas/solution]
        Free energy shift                  1.0808E-03 Eh       6.7819E-01 kcal/mol
        Temperature                        2.9815E+02 K
        Density                            1.0000E+00 kg/L
        Solvent mass                       1.8000E+01 g/mol
        Interaction kernel             P16
        Born radius scaling (c1)           1.4744E+00
        Born radii integrator          GBOBC
        Born offset                        0.0000E+00 a0       0.0000E+00 AA
        H-bond correction              true
        Ion screening                  false
        Surface tension                    1.0000E-05 Eh       1.5569E+01 dyn/cm
        Grid points                               230 per atom

          ...................................................
          :                      SETUP                      :
          :.................................................:
          :  # basis functions                  63          :
          :  # atomic orbitals                  63          :
          :  # shells                           37          :
          :  # electrons                        70          :
          :  max. iterations                   250          :
          :  Hamiltonian                  GFN2-xTB          :
          :  restarted?                      false          :
          :  GBSA solvation                   true          :
          :  PC potential                    false          :
          :  electronic temp.          300.0000000     K    :
          :  accuracy                    1.0000000          :
          :  -> integral cutoff          0.2500000E+02      :
          :  -> integral neglect         0.1000000E-07      :
          :  -> SCF convergence          0.1000000E-05 Eh   :
          :  -> wf. convergence          0.1000000E-03 e    :
          :  Broyden damping             0.4000000          :
          ...................................................

 iter      E             dE          RMSdq      gap      omega  full diag
   1    -40.3879829 -0.403880E+02  0.492E+00    4.02       0.0  T
   2    -40.4975678 -0.109585E+00  0.250E+00    4.13       1.0  T
   3    -40.5011431 -0.357521E-02  0.116E+00    4.09       1.0  T
   4    -40.5022968 -0.115370E-02  0.419E-01    4.07       1.0  T
   5    -40.5040469 -0.175018E-02  0.116E-01    4.04       1.0  T
   6    -40.5041168 -0.698876E-04  0.632E-02    4.05       1.0  T
   7    -40.5041261 -0.927781E-05  0.141E-02    4.07       1.4  T
   8    -40.5041280 -0.186033E-05  0.648E-03    4.07       3.1  T
   9    -40.5041281 -0.130471E-06  0.340E-03    4.07       6.0  T
  10    -40.5041281 -0.412253E-07  0.913E-04    4.07      22.4  T
  11    -40.5041281 -0.761346E-08  0.480E-04    4.07      42.5  T

   *** convergence criteria satisfied after 11 iterations ***

         #    Occupation            Energy/Eh            Energy/eV
      -------------------------------------------------------------
         1        2.0000           -0.7079294             -19.2637
       ...           ...                  ...                  ...
        29        2.0000           -0.4444734             -12.0947
        30        2.0000           -0.4233271             -11.5193
        31        2.0000           -0.4138547             -11.2616
        32        2.0000           -0.4076949             -11.0939
        33        2.0000           -0.4035119             -10.9801
        34        2.0000           -0.3867078             -10.5229
        35        2.0000           -0.3792375             -10.3196 (HOMO)
        36                         -0.2297506              -6.2518 (LUMO)
        37                         -0.2218157              -6.0359
        38                         -0.1931272              -5.2553
        39                         -0.0999284              -2.7192
        40                         -0.0533797              -1.4525
       ...                                ...                  ...
        63                          0.6330202              17.2254
      -------------------------------------------------------------
                  HL-Gap            0.1494868 Eh            4.0677 eV
             Fermi-level           -0.3044940 Eh           -8.2857 eV

 SCC (total)                   0 d,  0 h,  0 min,  0.018 sec
 SCC setup                      ...        0 min,  0.001 sec (  3.152%)
 Dispersion                     ...        0 min,  0.000 sec (  1.168%)
 classical contributions        ...        0 min,  0.000 sec (  0.160%)
 integral evaluation            ...        0 min,  0.003 sec ( 14.372%)
 iterations                     ...        0 min,  0.009 sec ( 50.048%)
 molecular gradient             ...        0 min,  0.005 sec ( 29.901%)
 printout                       ...        0 min,  0.000 sec (  1.085%)

         :::::::::::::::::::::::::::::::::::::::::::::::::::::
         ::                     SUMMARY                     ::
         :::::::::::::::::::::::::::::::::::::::::::::::::::::
         :: total energy             -40.017902113380 Eh    ::
         :: total w/o Gsasa/hb       -40.007287951934 Eh    ::
         :: gradient norm              0.044464273050 Eh/a0 ::
         :: HOMO-LUMO gap              4.067743157882 eV    ::
         ::.................................................::
         :: SCC energy               -40.504128144576 Eh    ::
         :: -> isotropic ES            0.200353380885 Eh    ::
         :: -> anisotropic ES         -0.010044619017 Eh    ::
         :: -> anisotropic XC          0.012081439285 Eh    ::
         :: -> dispersion             -0.020378816675 Eh    ::
         :: -> Gsolv                  -0.076114131601 Eh    ::
         ::    -> Gelec               -0.065499970155 Eh    ::
         ::    -> Gsasa                0.004109801723 Eh    ::
         ::    -> Ghb                 -0.015804722868 Eh    ::
         ::    -> Gshift               0.001080759698 Eh    ::
         :: repulsion energy           0.486165833709 Eh    ::
         :: add. restraining           0.000000000000 Eh    ::
         :: total charge              -0.000000000000 e     ::
         :::::::::::::::::::::::::::::::::::::::::::::::::::::

      ----------------------------------------------------------- 
     |                   =====================                   |
     |                        A N C O P T                        |
     |                   =====================                   |
     |               Approximate Normal Coordinate               |
     |                Rational Function Optimizer                |
      ----------------------------------------------------------- 

          ...................................................
          :                      SETUP                      :
          :.................................................:
          :   optimization level            normal          :
          :   max. optcycles                   200          :
          :   ANC micro-cycles                  20          :
          :   degrees of freedom                66          :
          :.................................................:
          :   RF solver                   davidson          :
          :   write xtbopt.log                true          :
          :   linear?                        false          :
          :   energy convergence         0.5000000E-05 Eh   :
          :   grad. convergence          0.1000000E-02 Eh/α :
          :   maximium RF displ.         1.0000000          :
          :   Hlow (freq-cutoff)         0.1000000E-01      :
          :   Hmax (freq-cutoff)         5.0000000          :
          :   S6 in model hess.         20.0000000          :
          ...................................................

generating ANC from model Hessian ...
Using Lindh-Hessian (1995)
 Shifting diagonal of input Hessian by   8.911926817393440E-003
 Lowest  eigenvalues of input Hessian
    0.000000    0.000000    0.000000    0.000000    0.000000    0.000000
    0.010000    0.010289    0.011065    0.014570    0.019993    0.020955
    0.022864    0.023834    0.024141    0.025812    0.028241    0.033682
 Highest eigenvalues
    1.659470    1.709352    1.854351    1.966362    2.052271    2.311383
 

........................................................................
.............................. CYCLE    1 ..............................
........................................................................
   1    -40.5041281 -0.405041E+02  0.249E-04    4.07       0.0  T
   2    -40.5041281 -0.259817E-09  0.174E-04    4.07     117.6  T
   3    -40.5041281 -0.771863E-10  0.113E-04    4.07     180.9  T
     SCC iter.                  ...        0 min,  0.003 sec
     gradient                   ...        0 min,  0.005 sec
 * total energy  :   -40.0179021 Eh     change       -0.1039190E-08 Eh
   gradient norm :     0.0444634 Eh/α   predicted     0.0000000E+00 (-100.00%)
   displ. norm   :     0.1640296 α      lambda       -0.3353536E-02
   maximum displ.:     0.0616333 α      in ANC's #5, #18, #9, ...

........................................................................
.............................. CYCLE    2 ..............................
........................................................................
   1    -40.5207423 -0.405207E+02  0.151E-01    4.08       0.0  T
   2    -40.5207819 -0.395193E-04  0.868E-02    4.09       1.0  T
   3    -40.5207796  0.231541E-05  0.352E-02    4.09       1.0  T
   4    -40.5207874 -0.787480E-05  0.552E-03    4.09       3.7  T
   5    -40.5207877 -0.290049E-06  0.302E-03    4.09       6.7  T
   6    -40.5207878 -0.337860E-07  0.142E-03    4.09      14.4  T
   7    -40.5207878 -0.640897E-08  0.459E-04    4.09      44.5  T
   8    -40.5207878 -0.909445E-09  0.241E-04    4.09      84.6  T
     SCC iter.                  ...        0 min,  0.006 sec
     gradient                   ...        0 min,  0.005 sec
 * total energy  :   -40.0200936 Eh     change       -0.2191446E-02 Eh
   gradient norm :     0.0210793 Eh/α   predicted    -0.1722000E-02 ( -21.42%)
   displ. norm   :     0.1570597 α      lambda       -0.1321353E-02
   maximum displ.:     0.0835960 α      in ANC's #13, #5, #11, ...

........................................................................
.............................. CYCLE    3 ..............................
........................................................................
   1    -40.5294225 -0.405294E+02  0.114E-01    4.10       0.0  T
   2    -40.5294537 -0.311769E-04  0.655E-02    4.10       1.0  T
   3    -40.5294532  0.474792E-06  0.293E-02    4.11       1.0  T
   4    -40.5294575 -0.428071E-05  0.536E-03    4.11       3.8  T
   5    -40.5294578 -0.322184E-06  0.239E-03    4.11       8.6  T
   6    -40.5294578 -0.251447E-07  0.105E-03    4.11      19.4  T
   7    -40.5294578 -0.280402E-08  0.382E-04    4.11      53.5  T
   8    -40.5294578 -0.846143E-09  0.182E-04    4.11     112.2  T
     SCC iter.                  ...        0 min,  0.006 sec
     gradient                   ...        0 min,  0.005 sec
 * total energy  :   -40.0204979 Eh     change       -0.4043705E-03 Eh
   gradient norm :     0.0134588 Eh/α   predicted    -0.6774205E-03 (  67.52%)
   displ. norm   :     0.0908036 α      lambda       -0.7245355E-03
   maximum displ.:     0.0312823 α      in ANC's #2, #24, #21, ...

........................................................................
.............................. CYCLE    4 ..............................
........................................................................
   1    -40.5295712 -0.405296E+02  0.718E-02    4.10       0.0  T
   2    -40.5295787 -0.755599E-05  0.422E-02    4.10       1.0  T
   3    -40.5295782  0.569847E-06  0.135E-02    4.11       1.5  T
   4    -40.5295794 -0.121262E-05  0.332E-03    4.11       6.2  T
   5    -40.5295795 -0.128620E-06  0.130E-03    4.11      15.6  T
   6    -40.5295795 -0.894449E-08  0.571E-04    4.11      35.7  T
   7    -40.5295795 -0.483283E-09  0.198E-04    4.11     103.0  T
     SCC iter.                  ...        0 min,  0.005 sec
     gradient                   ...        0 min,  0.005 sec
 * total energy  :   -40.0207902 Eh     change       -0.2923127E-03 Eh
   gradient norm :     0.0080709 Eh/α   predicted    -0.3652574E-03 (  24.95%)
   displ. norm   :     0.0397211 α      lambda       -0.1561098E-03
   maximum displ.:     0.0157924 α      in ANC's #9, #2, #5, ...

........................................................................
.............................. CYCLE    5 ..............................
........................................................................
   1    -40.5261467 -0.405261E+02  0.311E-02    4.10       0.0  T
   2    -40.5261488 -0.204428E-05  0.177E-02    4.10       1.2  T
   3    -40.5261487  0.266453E-07  0.740E-03    4.10       2.8  T
   4    -40.5261490 -0.256324E-06  0.126E-03    4.10      16.2  T
   5    -40.5261490 -0.128789E-07  0.657E-04    4.10      31.1  T
   6    -40.5261490 -0.256063E-08  0.339E-04    4.10      60.2  T
     SCC iter.                  ...        0 min,  0.005 sec
     gradient                   ...        0 min,  0.005 sec
 * total energy  :   -40.0208900 Eh     change       -0.9978650E-04 Eh
   gradient norm :     0.0032358 Eh/α   predicted    -0.7823554E-04 ( -21.60%)
   displ. norm   :     0.0524288 α      lambda       -0.5349357E-04
   maximum displ.:     0.0298666 α      in ANC's #2, #13, #3, ...

........................................................................
.............................. CYCLE    6 ..............................
........................................................................
   1    -40.5250299 -0.405250E+02  0.251E-02    4.10       0.0  T
   2    -40.5250314 -0.153176E-05  0.141E-02    4.11       1.4  T
   3    -40.5250315 -0.677456E-07  0.461E-03    4.11       4.4  T
   4    -40.5250315 -0.426077E-07  0.121E-03    4.11      16.8  T
   5    -40.5250315 -0.113068E-07  0.445E-04    4.11      45.8  T
   6    -40.5250315 -0.882920E-10  0.190E-04    4.11     107.5  T
     SCC iter.                  ...        0 min,  0.005 sec
     gradient                   ...        0 min,  0.005 sec
 * total energy  :   -40.0209252 Eh     change       -0.3513385E-04 Eh
   gradient norm :     0.0016488 Eh/α   predicted    -0.2683976E-04 ( -23.61%)
   displ. norm   :     0.0684048 α      lambda       -0.1823364E-04
   maximum displ.:     0.0451038 α      in ANC's #2, #3, #13, ...

........................................................................
.............................. CYCLE    7 ..............................
........................................................................
   1    -40.5248394 -0.405248E+02  0.271E-02    4.11       0.0  T
   2    -40.5248409 -0.156596E-05  0.155E-02    4.11       1.3  T
   3    -40.5248410 -0.830463E-07  0.423E-03    4.11       4.8  T
   4    -40.5248410 -0.190741E-07  0.118E-03    4.11      17.2  T
   5    -40.5248411 -0.149692E-07  0.468E-04    4.11      43.6  T
   6    -40.5248411 -0.459529E-09  0.234E-04    4.11      87.4  T
     SCC iter.                  ...        0 min,  0.005 sec
     gradient                   ...        0 min,  0.005 sec
 * total energy  :   -40.0209392 Eh     change       -0.1406609E-04 Eh
   gradient norm :     0.0013160 Eh/α   predicted    -0.9139908E-05 ( -35.02%)
   displ. norm   :     0.0248068 α      lambda       -0.5271399E-05
   maximum displ.:     0.0184820 α      in ANC's #2, #3, #6, ...

........................................................................
.............................. CYCLE    8 ..............................
........................................................................
   1    -40.5253033 -0.405253E+02  0.895E-03    4.12       0.0  T
   2    -40.5253034 -0.761464E-07  0.526E-03    4.12       3.9  T
   3    -40.5253033  0.144994E-07  0.158E-03    4.11      12.9  T
   4    -40.5253034 -0.264338E-07  0.368E-04    4.11      55.5  T
   5    -40.5253034 -0.132579E-08  0.174E-04    4.11     117.0  T
     SCC iter.                  ...        0 min,  0.004 sec
     gradient                   ...        0 min,  0.005 sec
 * total energy  :   -40.0209451 Eh     change       -0.5848429E-05 Eh
   gradient norm :     0.0008188 Eh/α   predicted    -0.2637183E-05 ( -54.91%)
   displ. norm   :     0.0353282 α      lambda       -0.3995898E-05
   maximum displ.:     0.0269216 α      in ANC's #2, #3, #6, ...

........................................................................
.............................. CYCLE    9 ..............................
........................................................................
   1    -40.5253962 -0.405254E+02  0.109E-02    4.12       0.0  T
   2    -40.5253963 -0.116554E-06  0.636E-03    4.12       3.2  T
   3    -40.5253963  0.132147E-07  0.162E-03    4.12      12.6  T
   4    -40.5253964 -0.301351E-07  0.459E-04    4.12      44.5  T
   5    -40.5253964 -0.170939E-08  0.226E-04    4.12      90.1  T
     SCC iter.                  ...        0 min,  0.005 sec
     gradient                   ...        0 min,  0.005 sec
 * total energy  :   -40.0209494 Eh     change       -0.4279195E-05 Eh
   gradient norm :     0.0004802 Eh/α   predicted    -0.1999885E-05 ( -53.26%)
   displ. norm   :     0.0303710 α      lambda       -0.2019246E-05
   maximum displ.:     0.0238476 α      in ANC's #2, #3, #6, ...

   *** GEOMETRY OPTIMIZATION CONVERGED AFTER 9 ITERATIONS ***

------------------------------------------------------------------------
 total energy gain   :        -0.0030472 Eh       -1.9122 kcal/mol
 total RMSD          :         0.0881960 a0        0.0467 Å
 total power (kW/mol):        -0.8889486 (step)  -63.0714 (real)
------------------------------------------------------------------------

 ANCopt (total)                0 d,  0 h,  0 min,  0.127 sec
 optimizer setup                ...        0 min,  0.000 sec (  0.135%)
 model hessian                  ...        0 min,  0.006 sec (  4.789%)
 ANC generation                 ...        0 min,  0.000 sec (  0.380%)
 coordinate transformation      ...        0 min,  0.000 sec (  0.053%)
 single point calculation       ...        0 min,  0.117 sec ( 92.398%)
 optimization log               ...        0 min,  0.002 sec (  1.424%)
 hessian update                 ...        0 min,  0.000 sec (  0.056%)
 rational function              ...        0 min,  0.001 sec (  0.399%)

================
 final structure:
================
24
 xtb: 6.4.1 (afa7bdf)
O        -3.70121212742428    1.34727174966774   -0.30923481485566
O         4.57693777344709   -0.03494432708815    0.45671356238918
O        -3.95728746650101   -0.82086475000972    0.19458712222506
N        -1.62644239687633   -1.30638209649316    0.90904140782181
C        -0.92227177235311    0.34090401430345   -0.81714260127853
C        -1.77359780765774    0.08214597239731    0.42607406773482
C         0.54716519749862    0.23696861969193   -0.51126711799473
C         1.19209475420976    1.24131268603484    0.20350819003260
C         1.28307977077926   -0.87204867215532   -0.90558052377440
C         2.53058042598584    1.14019046265907    0.51990740761685
C         2.62791638327481   -0.98381928172460   -0.59746140534388
C        -3.30846720912464    0.24067031433287    0.06133438545375
C         3.26085681617977    0.02191337706737    0.12179477081820
H        -1.17175852035372    1.34116997628660   -1.17582385435464
H        -1.20420020496230   -0.36815150185127   -1.59783328155737
H        -1.53258825975459    0.80784157355321    1.20267827298512
H         0.63795226394272    2.11664274687235    0.50782928830106
H         0.81296827834619   -1.65445495242679   -1.48360603334589
H         3.18463645681243   -1.85093347469980   -0.92110715202244
H        -0.94401562867851   -1.83413926304889    0.35918874013337
H        -2.62280326800200   -1.66587442185263    0.73540433210219
H         4.97866127318656   -0.85233603174760    0.12578613024121
H        -1.39928639886138   -1.37214621768350    1.90213995715544
H         3.03606466688658    1.91806949791469    1.06979714951691
 
 Bond Distances (Angstroems)
 ---------------------------
O1-C12=1.2313        O2-C13=1.3592        O2-H22=0.9690        O3-C12=1.2512        N4-C6=1.4775         N4-H20=1.0230        
N4-H21=1.0734        N4-H23=1.0209        C5-C6=1.5288         C5-C7=1.5045         C5-H14=1.0915        C5-H15=1.0917        
C6-N4=1.4775         C6-C5=1.5288         C6-C12=1.5856        C6-H16=1.0899        C7-C5=1.5045         C7-C8=1.3912         
C7-C9=1.3882         C8-C7=1.3912         C8-C10=1.3791        C8-H17=1.0798        C9-C7=1.3882         C9-C11=1.3842        
C9-H18=1.0804        C10-C8=1.3791        C10-C13=1.3937       C10-H24=1.0784       C11-C9=1.3842        C11-C13=1.3890       
C11-H19=1.0801       C12-O1=1.2313        C12-O3=1.2512        C12-C6=1.5856        C13-O2=1.3592        C13-C10=1.3937       
C13-C11=1.3890       H14-C5=1.0915        H15-C5=1.0917        H16-C6=1.0899        H17-C8=1.0798        H18-C9=1.0804        
H19-C11=1.0801       H20-N4=1.0230        H21-N4=1.0734        H22-O2=0.9690        H23-N4=1.0209        H24-C10=1.0784       
 C  H  Rav=1.0845 sigma=0.0057  Rmin=1.0784  Rmax=1.0917     7
 C  C  Rav=1.4383 sigma=0.0744  Rmin=1.3791  Rmax=1.5856     9
 N  H  Rav=1.0391 sigma=0.0243  Rmin=1.0209  Rmax=1.0734     3
 N  C  Rav=1.4775 sigma=0.0000  Rmin=1.4775  Rmax=1.4775     1
 O  H  Rav=0.9690 sigma=0.0000  Rmin=0.9690  Rmax=0.9690     1
 O  C  Rav=1.2806 sigma=0.0562  Rmin=1.2313  Rmax=1.3592     3
 
 selected bond angles (degree)
 --------------------
H22-O2-C13=110.64              H20-N4-C6=112.06               H21-N4-C6= 99.75               H21-N4-H20=111.07              
H23-N4-C6=113.62               H23-N4-H20=109.95              H23-N4-H21=110.02              C7-C5-C6=111.52                
H14-C5-C6=107.16               H14-C5-C7=110.69               H15-C5-C6=109.14               H15-C5-C7=110.66               
H15-C5-H14=107.53              C5-C6-N4=111.68                C12-C6-N4=105.40               C12-C6-C5=109.58               
H16-C6-N4=111.77               H16-C6-C5=110.10               H16-C6-C12=108.14              C8-C7-C5=120.49                
C9-C7-C5=121.01                C9-C7-C8=118.48                C10-C8-C7=120.99               H17-C8-C7=119.48               
H17-C8-C10=119.53              C11-C9-C7=121.09               H18-C9-C7=119.99               H18-C9-C11=118.91              
C13-C10-C8=120.12              H24-C10-C8=121.27              H24-C10-C13=118.61             
 
 selected dihedral angles (degree)
 ---------------------------------
C5-C6-N4-H20=  3.12           C5-C6-N4-H21=245.52           C5-C6-N4-H23=128.50           C12-C6-N4-H20=122.03          
C12-C6-N4-H21=  4.44          C12-C6-N4-H23=247.42          H16-C6-N4-H20=239.28          H16-C6-N4-H21=121.68          
H16-C6-N4-H23=  4.66          N4-C6-C5-C7=294.91            N4-C6-C5-H14=173.63           N4-C6-C5-H15= 57.48           
C12-C6-C5-C7=178.51           C12-C6-C5-H14= 57.23          C12-C6-C5-H15=301.07          H16-C6-C5-C7= 59.69           
H16-C6-C5-H14=298.41          H16-C6-C5-H15=182.25          C8-C7-C5-C6=286.19            C8-C7-C5-H14= 45.40           
C8-C7-C5-H15=164.51           C9-C7-C5-C6=104.67            C9-C7-C5-H14=223.88           C9-C7-C5-H15=342.99           
C10-C8-C7-C5=178.29           C10-C8-C7-C9=359.77           H17-C8-C7-C5=357.78           H17-C8-C7-C9=179.26           
C11-C9-C7-C5=181.54           C11-C9-C7-C8=  0.05           H18-C9-C7-C5=  3.06           H18-C9-C7-C8=181.57           
C13-C10-C8-C7=  0.12          C13-C10-C8-H17=180.63         H24-C10-C8-C7=179.71          H24-C10-C8-H17=  0.22         
           -------------------------------------------------
          |                Final Singlepoint                |
           -------------------------------------------------

          ...................................................
          :                      SETUP                      :
          :.................................................:
          :  # basis functions                  63          :
          :  # atomic orbitals                  63          :
          :  # shells                           37          :
          :  # electrons                        70          :
          :  max. iterations                   250          :
          :  Hamiltonian                  GFN2-xTB          :
          :  restarted?                      false          :
          :  GBSA solvation                   true          :
          :  PC potential                    false          :
          :  electronic temp.          300.0000000     K    :
          :  accuracy                    1.0000000          :
          :  -> integral cutoff          0.2500000E+02      :
          :  -> integral neglect         0.1000000E-07      :
          :  -> SCF convergence          0.1000000E-05 Eh   :
          :  -> wf. convergence          0.1000000E-03 e    :
          :  Broyden damping             0.4000000          :
          ...................................................

 iter      E             dE          RMSdq      gap      omega  full diag
   1    -40.5253964 -0.405254E+02  0.104E-04    4.12       0.0  T
   2    -40.5253964 -0.214868E-10  0.669E-05    4.12     305.3  T
   3    -40.5253964 -0.320455E-11  0.412E-05    4.12     495.6  T

   *** convergence criteria satisfied after 3 iterations ***

         #    Occupation            Energy/Eh            Energy/eV
      -------------------------------------------------------------
         1        2.0000           -0.7089953             -19.2927
       ...           ...                  ...                  ...
        29        2.0000           -0.4437009             -12.0737
        30        2.0000           -0.4223773             -11.4935
        31        2.0000           -0.4195910             -11.4177
        32        2.0000           -0.4089167             -11.1272
        33        2.0000           -0.4083771             -11.1125
        34        2.0000           -0.3867461             -10.5239
        35        2.0000           -0.3780053             -10.2860 (HOMO)
        36                         -0.2267682              -6.1707 (LUMO)
        37                         -0.2181811              -5.9370
        38                         -0.1891905              -5.1481
        39                         -0.0939341              -2.5561
        40                         -0.0330124              -0.8983
       ...                                ...                  ...
        63                          0.6611141              17.9898
      -------------------------------------------------------------
                  HL-Gap            0.1512372 Eh            4.1154 eV
             Fermi-level           -0.3023867 Eh           -8.2284 eV

 SCC (total)                   0 d,  0 h,  0 min,  0.011 sec
 SCC setup                      ...        0 min,  0.000 sec (  4.020%)
 Dispersion                     ...        0 min,  0.000 sec (  0.593%)
 classical contributions        ...        0 min,  0.000 sec (  0.186%)
 integral evaluation            ...        0 min,  0.002 sec ( 21.422%)
 iterations                     ...        0 min,  0.003 sec ( 24.283%)
 molecular gradient             ...        0 min,  0.005 sec ( 47.715%)
 printout                       ...        0 min,  0.000 sec (  1.603%)

         :::::::::::::::::::::::::::::::::::::::::::::::::::::
         ::                     SUMMARY                     ::
         :::::::::::::::::::::::::::::::::::::::::::::::::::::
         :: total energy             -40.020949357447 Eh    ::
         :: total w/o Gsasa/hb       -40.010490203444 Eh    ::
         :: gradient norm              0.000480847405 Eh/a0 ::
         :: HOMO-LUMO gap              4.115372387359 eV    ::
         ::.................................................::
         :: SCC energy               -40.525396358562 Eh    ::
         :: -> isotropic ES            0.188261881458 Eh    ::
         :: -> anisotropic ES         -0.010719792908 Eh    ::
         :: -> anisotropic XC          0.011253962610 Eh    ::
         :: -> dispersion             -0.020615077351 Eh    ::
         :: -> Gsolv                  -0.070190408690 Eh    ::
         ::    -> Gelec               -0.059731254687 Eh    ::
         ::    -> Gsasa                0.004036218109 Eh    ::
         ::    -> Ghb                 -0.015576131809 Eh    ::
         ::    -> Gshift               0.001080759698 Eh    ::
         :: repulsion energy           0.504386626300 Eh    ::
         :: add. restraining           0.000000000000 Eh    ::
         :: total charge              -0.000000000000 e     ::
         :::::::::::::::::::::::::::::::::::::::::::::::::::::

           ------------------------------------------------- 
          |                Numerical Hessian                |
           ------------------------------------------------- 
step length          :   0.00500
SCC accuracy         :   0.30000
Hessian scale factor :   1.00000
frozen atoms in %    :   0.00000    0
RMS gradient         :   0.00048
estimated CPU  time      0.03 min
estimated wall time      0.03 min

writing file <hessian>.

 projected vibrational frequencies (cm⁻¹)
eigval :       -0.00    -0.00     0.00     0.00     0.00     0.00
eigval :       27.10    38.11    58.46    76.03   149.75   176.37
eigval :      291.97   320.00   343.83   361.09   375.87   401.06
eigval :      412.47   451.66   466.38   509.30   544.21   613.93
eigval :      644.79   681.02   709.37   774.79   806.75   849.03
eigval :      867.26   876.96   895.79   906.60   926.08   928.63
eigval :     1012.36  1015.71  1046.91  1107.09  1116.95  1136.45
eigval :     1151.41  1185.82  1191.69  1207.10  1252.82  1273.30
eigval :     1279.34  1289.21  1317.52  1327.76  1339.77  1389.57
eigval :     1398.64  1427.01  1475.42  1492.04  1584.46  1609.19
eigval :     1731.08  2541.63  2983.35  2999.40  3009.51  3069.54
eigval :     3082.03  3084.16  3106.13  3292.63  3322.39  3461.02
           -------------------------------------------------
          |                Property Printout                |
           -------------------------------------------------

    * Orbital Energies and Occupations

         #    Occupation            Energy/Eh            Energy/eV
      -------------------------------------------------------------
         1        2.0000           -0.7089954             -19.2927
       ...           ...                  ...                  ...
        23        2.0000           -0.4920981             -13.3907
        24        2.0000           -0.4849381             -13.1958
        25        2.0000           -0.4814135             -13.0999
        26        2.0000           -0.4779315             -13.0052
        27        2.0000           -0.4546309             -12.3711
        28        2.0000           -0.4543053             -12.3623
        29        2.0000           -0.4437010             -12.0737
        30        2.0000           -0.4223774             -11.4935
        31        2.0000           -0.4195913             -11.4177
        32        2.0000           -0.4089171             -11.1272
        33        2.0000           -0.4083772             -11.1125
        34        2.0000           -0.3867462             -10.5239
        35        2.0000           -0.3780054             -10.2861 (HOMO)
        36                         -0.2267682              -6.1707 (LUMO)
        37                         -0.2181811              -5.9370
        38                         -0.1891907              -5.1481
        39                         -0.0939341              -2.5561
        40                         -0.0330125              -0.8983
        41                          0.0456090               1.2411
        42                          0.0608319               1.6553
        43                          0.0732161               1.9923
        44                          0.0935297               2.5451
        45                          0.1154086               3.1404
        46                          0.1196961               3.2571
       ...                                ...                  ...
        63                          0.6611140              17.9898
      -------------------------------------------------------------
                  HL-Gap            0.1512372 Eh            4.1154 eV
             Fermi-level           -0.3023868 Eh           -8.2284 eV

     #   Z          covCN         q      C6AA      α(0)
     1   8 O        0.856    -0.607    26.293     6.875
     2   8 O        1.659    -0.460    22.041     6.338
     3   8 O        0.857    -0.605    26.246     6.869
     4   7 N        3.483    -0.187    25.042     7.432
     5   6 C        3.809    -0.073    21.888     6.660
     6   6 C        3.777    -0.013    20.835     6.503
     7   6 C        2.969    -0.003    28.086     8.693
     8   6 C        2.925    -0.042    29.040     8.837
     9   6 C        2.925    -0.050    29.230     8.866
    10   6 C        2.918    -0.060    29.499     8.906
    11   6 C        2.917    -0.077    29.925     8.970
    12   6 C        2.683     0.366    20.788     7.461
    13   6 C        2.846     0.145    24.843     8.169
    14   1 H        0.924     0.064     2.152     2.294
    15   1 H        0.924     0.059     2.216     2.328
    16   1 H        0.925     0.081     1.970     2.195
    17   1 H        0.926     0.040     2.443     2.444
    18   1 H        0.926     0.050     2.319     2.381
    19   1 H        0.926     0.048     2.346     2.395
    20   1 H        0.859     0.289     0.747     1.354
    21   1 H        0.854     0.312     0.678     1.291
    22   1 H        0.804     0.373     0.538     1.152
    23   1 H        0.860     0.303     0.704     1.314
    24   1 H        0.926     0.046     2.367     2.406

 Mol. C6AA /au·bohr⁶  :       6287.090163
 Mol. C8AA /au·bohr⁸  :     147274.776844
 Mol. α(0) /au        :        122.135027


Wiberg/Mayer (AO) data.
largest (>0.10) Wiberg bond orders for each atom

 ---------------------------------------------------------------------------
     #   Z sym  total        # sym  WBO       # sym  WBO       # sym  WBO
 ---------------------------------------------------------------------------
     1   8 O    1.859 --    12 C    1.558     3 O    0.215
     2   8 O    2.077 --    13 C    1.076    22 H    0.841
     3   8 O    1.884 --    12 C    1.466     1 O    0.215
     4   7 N    3.630 --     6 C    0.970    23 H    0.897    20 H    0.897
                            21 H    0.795
     5   6 C    3.989 --     7 C    1.007     6 C    0.981    15 H    0.971
                            14 H    0.961
     6   6 C    3.935 --     5 C    0.981     4 N    0.970    16 H    0.958
                            12 C    0.876
     7   6 C    3.988 --     9 C    1.416     8 C    1.394     5 C    1.007
     8   6 C    3.991 --    10 C    1.470     7 C    1.394    17 H    0.968
                            11 C    0.105
     9   6 C    3.989 --    11 C    1.441     7 C    1.416    18 H    0.966
                            10 C    0.106
    10   6 C    3.989 --     8 C    1.470    13 C    1.355    24 H    0.969
                             9 C    0.106
    11   6 C    3.986 --     9 C    1.441    13 C    1.377    19 H    0.966
                             8 C    0.105
    12   6 C    3.932 --     1 O    1.558     3 O    1.466     6 C    0.876
    13   6 C    3.937 --    11 C    1.377    10 C    1.355     2 O    1.076
    14   1 H    0.995 --     5 C    0.961
    15   1 H    0.996 --     5 C    0.971
    16   1 H    0.993 --     6 C    0.958
    17   1 H    0.998 --     8 C    0.968
    18   1 H    0.997 --     9 C    0.966
    19   1 H    0.997 --    11 C    0.966
    20   1 H    0.916 --     4 N    0.897
    21   1 H    0.902 --     4 N    0.795
    22   1 H    0.861 --     2 O    0.841
    23   1 H    0.908 --     4 N    0.897
    24   1 H    0.998 --    10 C    0.969
 ---------------------------------------------------------------------------

Topologies differ in total number of bonds
Writing topology from bond orders to xtbtopo.mol

molecular dipole:
                 x           y           z       tot (Debye)
 q only:        4.067      -3.116       1.273
   full:        4.243      -3.208       1.258      13.894
molecular quadrupole (traceless):
                xx          xy          yy          xz          yz          zz
 q only:      -40.689       6.236      20.409     -11.490      -3.079      20.280
  q+dip:      -41.868       3.934      21.447     -11.991       0.185      20.421
   full:      -42.750       4.117      20.778     -12.916      -1.503      21.971

           -------------------------------------------------
          |                Geometry Summary                 |
           -------------------------------------------------

      molecular mass/u    :      181.1888893
   center of mass at/Å    :       -0.0164026       0.0194162       0.0051529
  moments of inertia/u·Å² :        0.2099965E+03   0.1472701E+04   0.1557243E+04
rotational constants/cm⁻¹ :        0.8027577E-01   0.1144674E-01   0.1082530E-01

 * 21 selected distances

     #   Z          #   Z                                           value/Å
     4   7 N        6   6 C                                       1.4774716
     5   6 C        6   6 C                                       1.5288229 (max)
     7   6 C        8   6 C                                       1.3912386
     7   6 C        9   6 C                                       1.3881544
     8   6 C       10   6 C                                       1.3790860
     9   6 C       11   6 C                                       1.3842021
     1   8 O       12   6 C                                       1.2313151
     2   8 O       13   6 C                                       1.3592176
    10   6 C       13   6 C                                       1.3936789
    11   6 C       13   6 C                                       1.3890433
     5   6 C       14   1 H                                       1.0915255
     5   6 C       15   1 H                                       1.0916599
     6   6 C       16   1 H                                       1.0898779
     8   6 C       17   1 H                                       1.0797629
     9   6 C       18   1 H                                       1.0804064
    11   6 C       19   1 H                                       1.0800791
     4   7 N       20   1 H                                       1.0230210
     4   7 N       21   1 H                                       1.0733683
     2   8 O       22   1 H                                       0.9690325 (min)
     4   7 N       23   1 H                                       1.0208670
    10   6 C       24   1 H                                       1.0784196

 * 6 distinct bonds (by element types)

   Z      Z             #   av. dist./Å        max./Å        min./Å
   1 H    6 C           7     1.0845330     1.0916599     1.0784196
   6 C    6 C           7     1.4077466     1.5288229     1.3790860
   1 H    7 N           3     1.0390854     1.0733683     1.0208670
   6 C    7 N           1     1.4774716     1.4774716     1.4774716
   1 H    8 O           1     0.9690325     0.9690325     0.9690325
   6 C    8 O           2     1.2952663     1.3592176     1.2313151

           -------------------------------------------------
          |               Frequency Printout                |
           -------------------------------------------------
 projected vibrational frequencies (cm⁻¹)
eigval :       -0.00    -0.00     0.00     0.00     0.00     0.00
eigval :       27.10    38.11    58.46    76.03   149.75   176.37
eigval :      291.97   320.00   343.83   361.09   375.87   401.06
eigval :      412.47   451.66   466.38   509.30   544.21   613.93
eigval :      644.79   681.02   709.37   774.79   806.75   849.03
eigval :      867.26   876.96   895.79   906.60   926.08   928.63
eigval :     1012.36  1015.71  1046.91  1107.09  1116.95  1136.45
eigval :     1151.41  1185.82  1191.69  1207.10  1252.82  1273.30
eigval :     1279.34  1289.21  1317.52  1327.76  1339.77  1389.57
eigval :     1398.64  1427.01  1475.42  1492.04  1584.46  1609.19
eigval :     1731.08  2541.63  2983.35  2999.40  3009.51  3069.54
eigval :     3082.03  3084.16  3106.13  3292.63  3322.39  3461.02
 reduced masses (amu)
   1: 12.99   2: 13.73   3: 12.51   4: 12.15   5: 12.78   6: 11.93   7: 11.55   8: 12.54
   9: 13.24  10: 12.36  11: 12.57  12: 13.05  13: 10.44  14:  2.58  15: 10.50  16: 11.39
  17:  8.77  18: 10.91  19:  8.83  20:  2.48  21: 11.51  22: 10.77  23: 11.37  24: 11.32
  25: 12.00  26: 11.21  27: 12.90  28: 11.60  29:  5.66  30: 10.53  31:  3.77  32: 10.31
  33:  6.51  34:  2.91  35:  3.80  36:  5.46  37:  6.37  38:  6.72  39:  6.02  40:  5.36
  41:  5.80  42:  3.31  43:  6.11  44:  2.46  45:  3.96  46:  5.99  47:  4.37  48:  9.23
  49:  5.32  50:  8.27  51:  4.84  52:  8.76  53: 10.75  54:  1.74  55:  2.01  56:  9.69
  57:  2.00  58:  9.67  59: 11.55  60: 11.54  61: 12.91  62:  1.83  63:  1.89  64:  1.57
  65:  1.79  66:  1.79  67:  1.83  68:  1.85  69:  1.86  70:  1.79  71:  1.81  72:  1.86
 IR intensities (km·mol⁻¹)
   1: 10.38   2:  3.09   3:  0.73   4:  2.06   5:  2.52   6:  5.32   7:  2.08   8: 34.19
   9: 17.68  10:  1.78  11: 24.77  12:  2.66  13:  6.24  14:  2.30  15: 21.62  16:123.69
  17: 11.39  18:  8.81  19: 26.54  20:193.05  21: 24.60  22: 36.05  23: 20.21  24:  1.22
  25: 36.03  26: 10.92  27: 25.47  28:112.10  29: 67.11  30:120.22  31:  0.91  32: 61.66
  33: 38.66  34:  2.09  35:  3.20  36: 64.83  37: 91.06  38: 32.64  39:  8.46  40:114.19
  41:190.55  42: 45.29  43: 10.46  44: 55.58  45: 11.64  46:111.77  47:198.73  48: 86.94
  49:170.94  50:249.24  51:109.00  52:595.45  53:  5.51  54:130.72  55:121.79  56: 22.33
  57:  1.64  58:168.20  59: 25.32  60: 69.85  61:769.15  62:808.62  63: 30.01  64: 29.15
  65: 28.04  66: 33.02  67:128.89  68: 22.98  69: 62.24  70:114.75  71:130.19  72:144.79
 Raman intensities (amu)
   1:  0.00   2:  0.00   3:  0.00   4:  0.00   5:  0.00   6:  0.00   7:  0.00   8:  0.00
   9:  0.00  10:  0.00  11:  0.00  12:  0.00  13:  0.00  14:  0.00  15:  0.00  16:  0.00
  17:  0.00  18:  0.00  19:  0.00  20:  0.00  21:  0.00  22:  0.00  23:  0.00  24:  0.00
  25:  0.00  26:  0.00  27:  0.00  28:  0.00  29:  0.00  30:  0.00  31:  0.00  32:  0.00
  33:  0.00  34:  0.00  35:  0.00  36:  0.00  37:  0.00  38:  0.00  39:  0.00  40:  0.00
  41:  0.00  42:  0.00  43:  0.00  44:  0.00  45:  0.00  46:  0.00  47:  0.00  48:  0.00
  49:  0.00  50:  0.00  51:  0.00  52:  0.00  53:  0.00  54:  0.00  55:  0.00  56:  0.00
  57:  0.00  58:  0.00  59:  0.00  60:  0.00  61:  0.00  62:  0.00  63:  0.00  64:  0.00
  65:  0.00  66:  0.00  67:  0.00  68:  0.00  69:  0.00  70:  0.00  71:  0.00  72:  0.00
 output can be read by thermo (or use thermo option).
 writing <g98.out> molden fake output.
 recommended (thermochemical) frequency scaling factor: 1.0
           -------------------------------------------------
          |             Thermodynamic Functions             |
           -------------------------------------------------

Molecule has no symmetry elements
It seems to be the C1 point group
c1  symmetry found (for desy threshold:  0.10E+00) used in thermo

          ...................................................
          :                      SETUP                      :
          :.................................................:
          :  # frequencies                          66      :
          :  # imaginary freq.                       0      :
          :  linear?                             false      :
          :  only rotor calc.                    false      :
          :  symmetry                               c1      :
          :  rotational number                       1      :
          :  scaling factor                  1.0000000      :
          :  rotor cutoff                   50.0000000 cm⁻¹ :
          :  imag. cutoff                  -20.0000000 cm⁻¹ :
          :.................................................:

    mode    ω/cm⁻¹     T·S(HO)/kcal·mol⁻¹    T·S(FR)/kcal·mol⁻¹   T·S(vib)
   ------------------------------------------------------------------------
       1     27.10    -1.79821 (  7.94%)    -1.23784 ( 92.06%)    -1.28235
       2     38.11    -1.59665 ( 25.23%)    -1.13691 ( 74.77%)    -1.25288
       3     58.46    -1.34419 ( 65.14%)    -1.01016 ( 34.86%)    -1.22776
       4     76.03    -1.18988 ( 84.24%)    -0.93234 ( 15.76%)    -1.14929
       5    149.75    -0.79767 ( 98.77%)    -0.73156 (  1.23%)    -0.79685
       6    176.37    -0.70557 ( 99.36%)    -0.68309 (  0.64%)    -0.70543
       7    291.97    -0.43605 ( 99.91%)    -0.53378 (  0.09%)    -0.43613
   ------------------------------------------------------------------------

   temp. (K)  partition function   enthalpy   heat capacity  entropy
                                   cal/mol     cal/K/mol   cal/K/mol   J/K/mol
 298.15  VIB  0.193E+05             5914.287     40.539     36.033
         ROT  0.168E+07              888.752      2.981     31.463
         INT  0.323E+11             6803.039     43.520     67.496
         TR   0.236E+28             1481.254      4.968     41.471
         TOT                        8284.2933    48.4877   108.9664   455.9155

       T/K    H(0)-H(T)+PV         H(T)/Eh          T*S/Eh         G(T)/Eh
   ------------------------------------------------------------------------
    298.15    0.132019E-01    0.199545E+00    0.517735E-01    0.147771E+00
   ------------------------------------------------------------------------

         :::::::::::::::::::::::::::::::::::::::::::::::::::::
         ::                  THERMODYNAMIC                  ::
         :::::::::::::::::::::::::::::::::::::::::::::::::::::
         :: total free energy         -39.873178095864 Eh   ::
         ::.................................................::
         :: total energy              -40.020949357405 Eh   ::
         :: zero point energy           0.186342862714 Eh   ::
         :: G(RRHO) w/o ZPVE           -0.038571601174 Eh   ::
         :: G(RRHO) contrib.            0.147771261540 Eh   ::
         :::::::::::::::::::::::::::::::::::::::::::::::::::::

optimized geometry written to: xtbopt.xyz


           -------------------------------------------------
          | TOTAL ENERGY              -40.020949357405 Eh   |
          | TOTAL ENTHALPY            -39.821404633041 Eh   |
          | TOTAL FREE ENERGY         -39.873178095864 Eh   |
          | GRADIENT NORM               0.000480682229 Eh/α |
          | HOMO-LUMO GAP               4.115373464175 eV   |
           -------------------------------------------------

------------------------------------------------------------------------
 * finished run on 2021/11/15 at 09:36:29.088     
------------------------------------------------------------------------
 total:
 * wall-time:     0 d,  0 h,  0 min,  1.936 sec
 *  cpu-time:     0 d,  0 h,  0 min,  1.891 sec
 * ratio c/w:     0.977 speedup
 SCF:
 * wall-time:     0 d,  0 h,  0 min,  0.018 sec
 *  cpu-time:     0 d,  0 h,  0 min,  0.031 sec
 * ratio c/w:     1.691 speedup
 ANC optimizer:
 * wall-time:     0 d,  0 h,  0 min,  0.140 sec
 *  cpu-time:     0 d,  0 h,  0 min,  0.125 sec
 * ratio c/w:     0.894 speedup
 analytical hessian:
 * wall-time:     0 d,  0 h,  0 min,  1.739 sec
 *  cpu-time:     0 d,  0 h,  0 min,  1.734 sec
 * ratio c/w:     0.997 speedup

