 Entering Gaussian System
 *********************************************
 Gaussian 98:
 frequency output generated by the xtb code
 *********************************************
                         Standard orientation:
 --------------------------------------------------------------------
  Center     Atomic     Atomic              Coordinates (Angstroms)
  Number     Number      Type              X           Y           Z
 --------------------------------------------------------------------
    1          8             0       -3.701206    1.347291   -0.309224
    2          8             0        4.576939   -0.034967    0.456698
    3          8             0       -3.957291   -0.820844    0.194602
    4          7             0       -1.626446   -1.306372    0.909049
    5          6             0       -0.922273    0.340907   -0.817140
    6          6             0       -1.773596    0.082156    0.426080
    7          6             0        0.547165    0.236965   -0.511269
    8          6             0        1.192102    1.241307    0.203502
    9          6             0        1.283072   -0.872057   -0.905583
   10          6             0        2.530588    1.140178    0.519897
   11          6             0        2.627909   -0.983834   -0.597469
   12          6             0       -3.308466    0.240688    0.061346
   13          6             0        3.260857    0.021897    0.121783
   14          1             0       -1.171756    1.341174   -1.175822
   15          1             0       -1.204208   -0.368148   -1.597828
   16          1             0       -1.532580    0.807852    1.202682
   17          1             0        0.637965    2.116640    0.507823
   18          1             0        0.812954   -1.654462   -1.483606
   19          1             0        3.184624   -1.850952   -0.921115
   20          1             0       -0.944024   -1.834134    0.359195
   21          1             0       -2.622809   -1.665859    0.735416
   22          1             0        4.978657   -0.852362    0.125770
   23          1             0       -1.399287   -1.372136    1.902147
   24          1             0        3.036078    1.918055    1.069783
 --------------------------------------------------------------------
     1 basis functions        1 primitive gaussians
     1 alpha electrons        1 beta electrons
 
 Harmonic frequencies (cm**-1), IR intensities (km*mol⁻¹),
 Raman scattering activities (A**4/amu), Raman depolarization ratios,
 reduced masses (AMU), force constants (mDyne/A) and normal coordinates:
                      1                      2                      3
                        a                      a                      a 
 Frequencies --    27.0987                38.1058                58.4616
 Red. masses --    11.5511                12.5423                13.2351
 Frc consts  --     0.0000                 0.0000                 0.0000
 IR Inten    --     2.0753                34.1925                17.6810
 Raman Activ --     0.0000                 0.0000                 0.0000
 Depolar     --     0.0000                 0.0000                 0.0000
 Atom AN      X      Y      Z        X      Y      Z        X      Y      Z
   1   8     0.13   0.02  -0.33    -0.26  -0.26  -0.26     0.05  -0.08  -0.04
   2   8     0.06   0.16  -0.05    -0.04  -0.27  -0.00    -0.16  -0.13   0.38
   3   8    -0.16   0.20   0.27     0.20  -0.25   0.03    -0.02   0.08   0.58
   4   7    -0.16   0.02   0.18     0.24   0.34   0.22     0.18  -0.08  -0.27
   5   6     0.01  -0.22  -0.01    -0.01   0.21   0.02     0.00   0.07  -0.20
   6   6    -0.03  -0.03  -0.00    -0.01   0.23   0.03     0.10  -0.05  -0.16
   7   6     0.02  -0.14   0.01    -0.02   0.12   0.01     0.00   0.09  -0.21
   8   6    -0.11  -0.22   0.24     0.04  -0.00   0.14    -0.03   0.07  -0.15
   9   6     0.16   0.05  -0.24    -0.07   0.13  -0.13     0.01   0.08  -0.16
  10   6    -0.10  -0.13   0.23     0.03  -0.12   0.14    -0.08   0.02   0.00
  11   6     0.17   0.14  -0.27    -0.08   0.02  -0.14    -0.03   0.02  -0.00
  12   6    -0.01   0.06  -0.03    -0.02  -0.10  -0.07     0.04  -0.02   0.11
  13   6     0.04   0.05  -0.03    -0.03  -0.11  -0.01    -0.08  -0.03   0.11
  14   1     0.00  -0.08  -0.05     0.01   0.06   0.01    -0.02   0.02  -0.03
  15   1     0.01  -0.09   0.02    -0.01   0.07   0.01    -0.00   0.03  -0.07
  16   1     0.00   0.01  -0.02    -0.05   0.11  -0.02     0.05  -0.03  -0.04
  17   1    -0.06  -0.10   0.13     0.03  -0.00   0.07    -0.01   0.03  -0.06
  18   1     0.07   0.03  -0.12    -0.04   0.07  -0.07     0.01   0.03  -0.06
  19   1     0.08   0.08  -0.13    -0.04   0.01  -0.07    -0.01  -0.00   0.02
  20   1    -0.09  -0.05   0.04     0.10   0.11   0.09    -0.03  -0.04  -0.16
  21   1    -0.06   0.04   0.10     0.08   0.03   0.06     0.02   0.01   0.04
  22   1     0.04   0.07  -0.06    -0.02  -0.06  -0.03    -0.04  -0.04   0.10
  23   1    -0.01   0.03   0.04     0.05   0.14   0.06     0.17  -0.04  -0.10
  24   1    -0.06  -0.06   0.12     0.02  -0.07   0.07    -0.03  -0.00   0.02
                      4                      5                      6
                        a                      a                      a 
 Frequencies --    76.0284               149.7511               176.3692
 Red. masses --    12.3628                12.5747                13.0507
 Frc consts  --     0.0000                 0.0000                 0.0000
 IR Inten    --     1.7786                24.7715                 2.6582
 Raman Activ --     0.0000                 0.0000                 0.0000
 Depolar     --     0.0000                 0.0000                 0.0000
 Atom AN      X      Y      Z        X      Y      Z        X      Y      Z
   1   8     0.04  -0.16  -0.45    -0.38   0.03   0.19    -0.45  -0.04   0.16
   2   8     0.15  -0.05  -0.28     0.16   0.23  -0.26     0.17  -0.18   0.27
   3   8    -0.19   0.04   0.26    -0.01  -0.00   0.17    -0.23  -0.06   0.05
   4   7    -0.11  -0.18  -0.20     0.11   0.18  -0.27    -0.27   0.04   0.03
   5   6     0.03   0.22   0.19     0.08   0.03  -0.24     0.06  -0.06   0.03
   6   6    -0.09  -0.09   0.03    -0.03   0.14  -0.29    -0.16   0.01  -0.08
   7   6     0.02   0.13   0.21     0.03  -0.13   0.03     0.12   0.01   0.02
   8   6     0.14   0.11   0.12    -0.03  -0.17   0.16     0.21   0.06  -0.12
   9   6    -0.09   0.05   0.22     0.05  -0.17   0.17     0.20   0.09  -0.09
  10   6     0.17   0.05  -0.01    -0.03  -0.13   0.19     0.23   0.07  -0.17
  11   6    -0.07  -0.02   0.10     0.05  -0.12   0.19     0.21   0.09  -0.13
  12   6    -0.07  -0.06  -0.06    -0.12   0.05  -0.01    -0.24  -0.02  -0.01
  13   6     0.08  -0.00  -0.05     0.05  -0.03   0.06     0.22   0.01  -0.03
  14   1     0.02   0.09   0.12     0.08   0.01  -0.09     0.03  -0.03  -0.02
  15   1     0.02   0.13  -0.01     0.04   0.01  -0.07     0.05  -0.03   0.01
  16   1    -0.06  -0.07   0.06    -0.01   0.05  -0.09    -0.07   0.01  -0.02
  17   1     0.07   0.04   0.04    -0.02  -0.06   0.05     0.07   0.03  -0.04
  18   1    -0.05   0.02   0.09     0.03  -0.06   0.05     0.06   0.02  -0.03
  19   1    -0.04  -0.02   0.03     0.02  -0.03   0.06     0.06   0.03  -0.05
  20   1    -0.10  -0.05  -0.14     0.02   0.05  -0.09    -0.09  -0.02   0.02
  21   1    -0.06  -0.01   0.02     0.03   0.03  -0.03    -0.08   0.03   0.02
  22   1     0.01  -0.02  -0.07     0.05   0.07  -0.07     0.04  -0.05   0.08
  23   1     0.06  -0.10  -0.08     0.07   0.06  -0.08    -0.07   0.03   0.01
  24   1     0.08   0.01  -0.03    -0.02  -0.03   0.06     0.07   0.03  -0.06
                      7                      8                      9
                        a                      a                      a 
 Frequencies --   291.9691               320.0027               343.8291
 Red. masses --    10.4437                 2.5772                10.5016
 Frc consts  --     0.0000                 0.0000                 0.0000
 IR Inten    --     6.2399                 2.2982                21.6172
 Raman Activ --     0.0000                 0.0000                 0.0000
 Depolar     --     0.0000                 0.0000                 0.0000
 Atom AN      X      Y      Z        X      Y      Z        X      Y      Z
   1   8     0.11   0.01   0.13     0.00  -0.02  -0.11     0.04   0.08   0.00
   2   8     0.08  -0.26  -0.28     0.00  -0.02   0.03    -0.12  -0.28   0.10
   3   8    -0.10  -0.01   0.02    -0.07   0.06   0.20    -0.06   0.05  -0.03
   4   7    -0.06  -0.04   0.17     0.06  -0.05  -0.18     0.31   0.06  -0.13
   5   6     0.03  -0.25  -0.27    -0.01  -0.02   0.00     0.02  -0.23  -0.01
   6   6     0.03  -0.16  -0.25    -0.01   0.01   0.01    -0.05   0.03  -0.08
   7   6     0.03   0.31  -0.06    -0.01  -0.01   0.03    -0.07  -0.13   0.37
   8   6     0.04   0.22   0.07     0.00  -0.01   0.02    -0.10  -0.04   0.26
   9   6    -0.04   0.24   0.05    -0.00  -0.01   0.02    -0.06  -0.05   0.19
  10   6     0.04   0.05   0.20     0.01   0.01  -0.02     0.04   0.23  -0.20
  11   6    -0.11   0.07   0.17     0.02   0.02  -0.04     0.01   0.17  -0.16
  12   6     0.01  -0.09  -0.07    -0.03   0.02   0.07    -0.04   0.01  -0.04
  13   6    -0.02   0.03   0.12     0.02   0.01  -0.02    -0.00   0.19  -0.19
  14   1    -0.10  -0.14  -0.18    -0.00  -0.01  -0.01     0.02  -0.11  -0.13
  15   1     0.12  -0.18  -0.02     0.00  -0.01   0.01     0.06  -0.15   0.05
  16   1     0.02   0.00  -0.12     0.02  -0.01   0.01    -0.02   0.03  -0.04
  17   1     0.03   0.08   0.03     0.00  -0.00   0.01    -0.05  -0.04   0.11
  18   1    -0.03   0.08   0.01    -0.00  -0.00   0.01    -0.02  -0.02   0.07
  19   1    -0.05   0.00   0.06     0.01   0.01  -0.02     0.02   0.07  -0.07
  20   1     0.01  -0.07   0.13     0.45   0.16   0.31     0.06   0.06  -0.11
  21   1    -0.01  -0.02   0.04     0.15  -0.16  -0.46     0.11  -0.05   0.05
  22   1    -0.07  -0.10  -0.09     0.00  -0.00   0.00    -0.09  -0.09   0.01
  23   1    -0.07   0.09   0.06    -0.54  -0.01   0.08     0.19   0.01  -0.06
  24   1     0.01  -0.00   0.08     0.00   0.00  -0.01     0.02   0.09  -0.10
                     10                     11                     12
                        a                      a                      a 
 Frequencies --   361.0880               375.8734               401.0598
 Red. masses --    11.3868                 8.7747                10.9103
 Frc consts  --     0.0000                 0.0000                 0.0000
 IR Inten    --   123.6903                11.3878                 8.8051
 Raman Activ --     0.0000                 0.0000                 0.0000
 Depolar     --     0.0000                 0.0000                 0.0000
 Atom AN      X      Y      Z        X      Y      Z        X      Y      Z
   1   8    -0.25  -0.08  -0.11     0.01  -0.01   0.01     0.08  -0.03   0.12
   2   8    -0.05  -0.15  -0.08     0.01   0.06  -0.04    -0.25   0.26   0.21
   3   8     0.53  -0.05   0.09     0.02  -0.01   0.01     0.12  -0.06   0.10
   4   7    -0.34  -0.01  -0.21    -0.04  -0.00   0.02    -0.22   0.02   0.08
   5   6     0.04  -0.18   0.02     0.01   0.03  -0.01     0.19   0.07  -0.13
   6   6     0.15   0.13   0.13     0.01  -0.01  -0.02     0.08  -0.08  -0.26
   7   6     0.02  -0.01   0.04     0.01   0.01  -0.02     0.07   0.10   0.19
   8   6    -0.05   0.03   0.04    -0.10  -0.20   0.36     0.05   0.09   0.20
   9   6    -0.00   0.00   0.03     0.10   0.19  -0.37    -0.14  -0.01   0.15
  10   6    -0.03   0.10   0.03     0.09   0.17  -0.34     0.07  -0.09  -0.13
  11   6    -0.02   0.07   0.01    -0.10  -0.21   0.35    -0.06  -0.16  -0.24
  12   6     0.19   0.17   0.10     0.01  -0.01  -0.00     0.13  -0.06  -0.10
  13   6    -0.05   0.09   0.01    -0.00  -0.01  -0.01    -0.09  -0.13  -0.28
  14   1    -0.01  -0.10  -0.11     0.00   0.02   0.01     0.05   0.04   0.00
  15   1     0.01  -0.15   0.09     0.00   0.02  -0.02     0.12   0.05  -0.09
  16   1     0.12  -0.01   0.05     0.00  -0.00  -0.00     0.01   0.00  -0.09
  17   1    -0.03   0.00   0.01    -0.06  -0.12   0.22     0.04   0.03   0.09
  18   1    -0.00  -0.00   0.02     0.06   0.12  -0.22    -0.12   0.02   0.08
  19   1     0.01   0.03   0.01    -0.06  -0.12   0.21    -0.05  -0.06  -0.09
  20   1    -0.15  -0.04  -0.08    -0.00  -0.01   0.03    -0.07  -0.09   0.11
  21   1    -0.19   0.16  -0.14    -0.01   0.01  -0.01    -0.10   0.07   0.00
  22   1    -0.07  -0.06  -0.03    -0.04  -0.09   0.19     0.08   0.13   0.06
  23   1    -0.14  -0.12  -0.06    -0.04   0.01   0.01    -0.12   0.09   0.04
  24   1    -0.02   0.03   0.01     0.06   0.10  -0.20     0.10  -0.08  -0.04
                     13                     14                     15
                        a                      a                      a 
 Frequencies --   412.4715               451.6592               466.3752
 Red. masses --     8.8341                 2.4781                11.5148
 Frc consts  --     0.0000                 0.0000                 0.0000
 IR Inten    --    26.5421               193.0502                24.5981
 Raman Activ --     0.0000                 0.0000                 0.0000
 Depolar     --     0.0000                 0.0000                 0.0000
 Atom AN      X      Y      Z        X      Y      Z        X      Y      Z
   1   8     0.12  -0.04   0.10    -0.01   0.00   0.00     0.17  -0.03  -0.00
   2   8    -0.04  -0.29  -0.09    -0.09  -0.13   0.15     0.35  -0.07   0.24
   3   8     0.02  -0.06   0.07     0.00   0.01   0.00     0.09  -0.09   0.00
   4   7    -0.18   0.03   0.13     0.00  -0.00   0.01    -0.10   0.06  -0.02
   5   6     0.11   0.30  -0.08     0.03  -0.00   0.01    -0.33   0.07  -0.19
   6   6     0.04  -0.07  -0.18     0.01  -0.00  -0.01    -0.05   0.03   0.00
   7   6     0.04  -0.21  -0.04     0.02  -0.04   0.04    -0.27   0.12  -0.20
   8   6    -0.10  -0.15  -0.01    -0.01  -0.01   0.03    -0.09  -0.19   0.08
   9   6     0.05  -0.21   0.03     0.04   0.02  -0.09    -0.12   0.08   0.21
  10   6    -0.08   0.23   0.05     0.03   0.10  -0.11     0.01  -0.14  -0.13
  11   6     0.06   0.21   0.03    -0.02  -0.05   0.12    -0.02   0.13   0.04
  12   6     0.08  -0.09  -0.08     0.00   0.00  -0.01     0.04  -0.03   0.09
  13   6    -0.03   0.28   0.00    -0.05  -0.03   0.10     0.34   0.09  -0.20
  14   1     0.13   0.19   0.19     0.02   0.00   0.01    -0.13   0.01  -0.05
  15   1    -0.03   0.27  -0.17     0.01   0.01  -0.00    -0.11   0.01  -0.04
  16   1    -0.02  -0.01  -0.05    -0.00  -0.00  -0.00     0.03   0.02  -0.02
  17   1    -0.09  -0.07  -0.02    -0.01   0.00  -0.02     0.01  -0.07   0.14
  18   1     0.05  -0.10   0.03     0.02   0.03  -0.07    -0.01  -0.05   0.14
  19   1     0.08   0.09   0.04     0.00  -0.01   0.03    -0.09  -0.03   0.05
  20   1    -0.04  -0.07   0.12     0.00  -0.00   0.01    -0.04  -0.00  -0.01
  21   1    -0.07   0.04   0.02     0.00  -0.00  -0.00    -0.05   0.04  -0.01
  22   1    -0.14  -0.13  -0.05     0.20   0.42  -0.80     0.13   0.06  -0.06
  23   1    -0.11   0.09   0.06    -0.00   0.00   0.00    -0.03   0.01  -0.01
  24   1    -0.08   0.10   0.02     0.02   0.06  -0.09    -0.07  -0.04   0.04
                     16                     17                     18
                        a                      a                      a 
 Frequencies --   509.2952               544.2097               613.9279
 Red. masses --    10.7739                11.3697                11.3232
 Frc consts  --     0.0000                 0.0000                 0.0000
 IR Inten    --    36.0514                20.2080                 1.2182
 Raman Activ --     0.0000                 0.0000                 0.0000
 Depolar     --     0.0000                 0.0000                 0.0000
 Atom AN      X      Y      Z        X      Y      Z        X      Y      Z
   1   8     0.35  -0.03   0.09     0.37  -0.11   0.10     0.01  -0.01  -0.00
   2   8     0.15   0.06  -0.08    -0.18  -0.02   0.00     0.01  -0.15  -0.07
   3   8     0.05  -0.19   0.08    -0.22  -0.21   0.02    -0.02  -0.00  -0.01
   4   7    -0.15   0.22  -0.14    -0.15   0.31  -0.21    -0.01   0.02   0.00
   5   6    -0.11   0.01  -0.05     0.09  -0.03   0.13     0.01   0.06   0.01
   6   6    -0.14   0.12  -0.09    -0.11   0.24   0.11     0.00   0.01   0.02
   7   6    -0.20  -0.17   0.34     0.20   0.07  -0.17     0.01   0.09   0.05
   8   6    -0.01   0.01  -0.10     0.07   0.04   0.00    -0.39   0.28   0.04
   9   6    -0.02   0.10  -0.06     0.09  -0.08  -0.06     0.38   0.21   0.21
  10   6    -0.00  -0.03  -0.09     0.02   0.04   0.12    -0.37  -0.18  -0.19
  11   6    -0.01   0.08  -0.06     0.04  -0.11   0.06     0.38  -0.24  -0.02
  12   6     0.04  -0.13   0.01    -0.07  -0.21   0.07    -0.01  -0.00   0.02
  13   6    -0.02  -0.22   0.39    -0.05   0.13  -0.22     0.00  -0.08  -0.06
  14   1     0.03   0.00  -0.05     0.02  -0.06  -0.10     0.03   0.04   0.05
  15   1    -0.01  -0.01  -0.01     0.01  -0.11   0.13    -0.02   0.06  -0.03
  16   1    -0.06   0.07  -0.05    -0.12   0.10   0.03    -0.00   0.00   0.01
  17   1     0.06   0.09  -0.17    -0.03  -0.05   0.08    -0.08   0.09   0.02
  18   1     0.04   0.10  -0.16    -0.01  -0.06   0.06     0.07   0.08   0.06
  19   1     0.02   0.10  -0.18     0.02  -0.07   0.14     0.08  -0.08  -0.02
  20   1    -0.05   0.05  -0.04    -0.05   0.13  -0.11    -0.00   0.01  -0.00
  21   1    -0.06   0.07  -0.05    -0.05   0.08  -0.08    -0.00   0.00  -0.00
  22   1     0.02  -0.02   0.06    -0.04   0.01  -0.04    -0.04  -0.05  -0.04
  23   1    -0.05   0.04  -0.04    -0.03  -0.03  -0.06    -0.00  -0.00   0.00
  24   1     0.03   0.09  -0.18     0.00  -0.06   0.14    -0.08  -0.07  -0.05
                     19                     20                     21
                        a                      a                      a 
 Frequencies --   644.7852               681.0240               709.3655
 Red. masses --    12.0013                11.2123                12.8986
 Frc consts  --     0.0000                 0.0000                 0.0000
 IR Inten    --    36.0273                10.9218                25.4667
 Raman Activ --     0.0000                 0.0000                 0.0000
 Depolar     --     0.0000                 0.0000                 0.0000
 Atom AN      X      Y      Z        X      Y      Z        X      Y      Z
   1   8     0.02   0.29   0.09     0.00   0.12   0.08     0.14   0.29  -0.19
   2   8     0.04  -0.02   0.04    -0.01   0.02  -0.06    -0.20   0.01  -0.06
   3   8     0.34  -0.09   0.26     0.08  -0.03   0.14     0.28  -0.31  -0.01
   4   7     0.01  -0.06  -0.01    -0.01  -0.02  -0.00    -0.02  -0.10   0.05
   5   6    -0.05  -0.08   0.24    -0.02   0.00   0.13    -0.16   0.00  -0.14
   6   6    -0.28  -0.09  -0.09    -0.08  -0.00   0.06    -0.26  -0.09  -0.10
   7   6    -0.06  -0.06   0.11     0.13   0.22  -0.43     0.04   0.03  -0.04
   8   6    -0.00   0.07  -0.17    -0.06  -0.12   0.22     0.14  -0.01   0.06
   9   6     0.02   0.09  -0.14    -0.03  -0.15   0.22     0.13  -0.02   0.05
  10   6    -0.08  -0.09   0.10     0.06   0.12  -0.22     0.15   0.09   0.06
  11   6    -0.05  -0.05   0.13     0.10   0.10  -0.23     0.15  -0.07  -0.03
  12   6    -0.01   0.01  -0.50    -0.00  -0.05  -0.34    -0.39   0.20   0.37
  13   6     0.08   0.11  -0.20    -0.12  -0.20   0.38    -0.08  -0.01   0.02
  14   1    -0.00  -0.02   0.07    -0.08  -0.03  -0.01    -0.04   0.02   0.02
  15   1    -0.00  -0.01   0.05    -0.02  -0.05   0.09    -0.02   0.06  -0.10
  16   1    -0.24  -0.01   0.01    -0.15   0.00   0.05     0.04  -0.04  -0.05
  17   1    -0.01  -0.00  -0.01    -0.03  -0.06   0.10     0.04  -0.00   0.03
  18   1    -0.00   0.00  -0.00    -0.01  -0.06   0.09     0.04  -0.01   0.02
  19   1    -0.04  -0.06   0.10     0.04   0.04  -0.07     0.07  -0.01   0.01
  20   1     0.05   0.05  -0.00     0.02   0.04  -0.02     0.02   0.01   0.01
  21   1     0.02  -0.06   0.01     0.00  -0.02  -0.01     0.02  -0.08   0.04
  22   1     0.01   0.00  -0.01    -0.01  -0.00  -0.01    -0.04   0.00  -0.01
  23   1     0.02   0.03  -0.00     0.00  -0.03  -0.00     0.04   0.05   0.01
  24   1    -0.05  -0.06   0.10     0.02   0.04  -0.08     0.08  -0.00   0.02
                     22                     23                     24
                        a                      a                      a 
 Frequencies --   774.7942               806.7509               849.0286
 Red. masses --    11.5974                 5.6559                10.5256
 Frc consts  --     0.0000                 0.0000                 0.0000
 IR Inten    --   112.1033                67.1120               120.2203
 Raman Activ --     0.0000                 0.0000                 0.0000
 Depolar     --     0.0000                 0.0000                 0.0000
 Atom AN      X      Y      Z        X      Y      Z        X      Y      Z
   1   8    -0.07  -0.16   0.09     0.02   0.12  -0.01    -0.02  -0.22   0.00
   2   8    -0.38   0.01  -0.08     0.04  -0.03   0.07     0.20  -0.02   0.06
   3   8    -0.02   0.21   0.01    -0.01  -0.12   0.05     0.12   0.24  -0.09
   4   7    -0.01  -0.00   0.00     0.01  -0.05   0.04    -0.12   0.04  -0.04
   5   6    -0.40   0.05  -0.12     0.07   0.07  -0.03    -0.06  -0.09   0.08
   6   6    -0.07   0.00   0.05     0.10   0.04   0.09    -0.42  -0.10  -0.16
   7   6    -0.16  -0.02   0.02     0.08   0.09  -0.16     0.13   0.06  -0.11
   8   6     0.23  -0.15   0.00    -0.07  -0.04   0.14    -0.09   0.19   0.09
   9   6     0.23   0.11   0.14    -0.07  -0.13   0.13    -0.09  -0.22  -0.06
  10   6     0.21   0.01   0.13    -0.07  -0.08   0.17    -0.02   0.13   0.08
  11   6     0.22  -0.09   0.08    -0.07  -0.14   0.21    -0.03  -0.17  -0.00
  12   6     0.31  -0.07  -0.18    -0.16  -0.01  -0.10     0.33   0.04   0.27
  13   6    -0.05   0.04  -0.09     0.07   0.14  -0.25    -0.01   0.02  -0.03
  14   1    -0.15   0.01  -0.03    -0.04  -0.02  -0.07    -0.02  -0.00   0.08
  15   1    -0.14  -0.00  -0.01     0.01  -0.05   0.05    -0.00   0.04  -0.04
  16   1    -0.04   0.02   0.00     0.00  -0.01   0.05    -0.16   0.00  -0.06
  17   1     0.13   0.02  -0.04     0.04   0.13  -0.26    -0.07   0.03   0.01
  18   1     0.13   0.04  -0.03     0.07   0.17  -0.31    -0.04   0.02  -0.12
  19   1     0.11   0.04  -0.06     0.11   0.22  -0.41     0.07   0.05  -0.15
  20   1     0.02   0.04  -0.01    -0.02  -0.02  -0.00     0.09   0.18  -0.02
  21   1     0.00  -0.01  -0.00    -0.01   0.02  -0.01     0.04  -0.16   0.06
  22   1    -0.08   0.00  -0.01     0.00  -0.01   0.02     0.05  -0.00   0.01
  23   1     0.01  -0.02  -0.00    -0.02  -0.07   0.01     0.11   0.15  -0.03
  24   1     0.11   0.02  -0.04     0.07   0.17  -0.30     0.03   0.03  -0.01
                     25                     26                     27
                        a                      a                      a 
 Frequencies --   867.2642               876.9622               895.7901
 Red. masses --     3.7671                10.3094                 6.5102
 Frc consts  --     0.0000                 0.0000                 0.0000
 IR Inten    --     0.9060                61.6579                38.6590
 Raman Activ --     0.0000                 0.0000                 0.0000
 Depolar     --     0.0000                 0.0000                 0.0000
 Atom AN      X      Y      Z        X      Y      Z        X      Y      Z
   1   8     0.00   0.01  -0.01    -0.00  -0.07  -0.02     0.01  -0.05  -0.01
   2   8    -0.07   0.01  -0.03    -0.25   0.02  -0.05    -0.05   0.00  -0.01
   3   8    -0.01  -0.01  -0.00     0.04   0.05  -0.05     0.05   0.05  -0.03
   4   7     0.01   0.02  -0.01    -0.04   0.11  -0.08    -0.03  -0.30   0.06
   5   6     0.06  -0.02   0.03     0.26  -0.17   0.25     0.14   0.47  -0.05
   6   6     0.03  -0.01  -0.02    -0.11  -0.10  -0.14    -0.19   0.14  -0.06
   7   6    -0.03  -0.00   0.01     0.00   0.09  -0.16    -0.00  -0.02   0.07
   8   6     0.07   0.01  -0.22     0.06  -0.31  -0.07    -0.01  -0.12  -0.07
   9   6    -0.01   0.02   0.15     0.05   0.27   0.15     0.03  -0.02   0.02
  10   6     0.05   0.05  -0.28    -0.08  -0.33  -0.08    -0.06  -0.08  -0.08
  11   6    -0.07  -0.04   0.25    -0.09   0.29   0.14     0.03   0.07  -0.01
  12   6    -0.02   0.01   0.02     0.06   0.04   0.19     0.08   0.02   0.12
  13   6     0.01  -0.02   0.04     0.08   0.01  -0.02     0.02   0.02   0.02
  14   1     0.03   0.00   0.02     0.10  -0.01   0.16    -0.02  -0.06  -0.47
  15   1     0.02   0.00   0.00     0.11   0.04  -0.02     0.16  -0.24   0.27
  16   1     0.01  -0.00  -0.00    -0.05  -0.01  -0.05    -0.21  -0.05   0.12
  17   1    -0.07  -0.20   0.36     0.10  -0.02  -0.08    -0.01  -0.03  -0.04
  18   1     0.08   0.14  -0.20     0.06   0.01   0.09     0.05   0.01  -0.05
  19   1     0.10   0.25  -0.42    -0.08   0.07  -0.02    -0.01  -0.02   0.09
  20   1    -0.01  -0.02   0.01     0.03   0.06   0.00     0.02  -0.13   0.10
  21   1    -0.00   0.01  -0.00     0.02  -0.05   0.02     0.02  -0.11   0.08
  22   1    -0.02   0.00  -0.01    -0.06   0.00  -0.01    -0.03  -0.00  -0.01
  23   1    -0.01   0.01  -0.00     0.04   0.14  -0.03     0.03   0.10   0.02
  24   1    -0.14  -0.24   0.43    -0.03   0.06  -0.23    -0.07  -0.02   0.02
                     28                     29                     30
                        a                      a                      a 
 Frequencies --   906.6033               926.0798               928.6278
 Red. masses --     2.9091                 3.7970                 5.4589
 Frc consts  --     0.0000                 0.0000                 0.0000
 IR Inten    --     2.0856                 3.2040                64.8283
 Raman Activ --     0.0000                 0.0000                 0.0000
 Depolar     --     0.0000                 0.0000                 0.0000
 Atom AN      X      Y      Z        X      Y      Z        X      Y      Z
   1   8     0.00   0.00  -0.00    -0.00   0.00  -0.00     0.00   0.00   0.01
   2   8     0.03  -0.00   0.01     0.01  -0.01   0.01    -0.03   0.00  -0.01
   3   8    -0.01  -0.00  -0.00    -0.01  -0.01  -0.00     0.02   0.01   0.03
   4   7     0.03  -0.03  -0.01     0.02   0.03  -0.04    -0.11  -0.16   0.30
   5   6    -0.03   0.08  -0.00    -0.04   0.01   0.04     0.19  -0.02  -0.34
   6   6     0.02   0.02  -0.02     0.05  -0.02  -0.02    -0.17   0.15   0.13
   7   6    -0.01  -0.01   0.02    -0.01  -0.00   0.01     0.03  -0.02   0.02
   8   6     0.01   0.05  -0.06     0.08   0.16  -0.29     0.02   0.03  -0.06
   9   6     0.07   0.12  -0.28    -0.04  -0.10   0.16    -0.01   0.04   0.01
  10   6    -0.02  -0.01   0.09    -0.06  -0.10   0.23    -0.03  -0.09  -0.00
  11   6    -0.04  -0.13   0.15     0.05   0.04  -0.12    -0.06   0.10   0.02
  12   6    -0.00   0.00   0.00    -0.02   0.00  -0.00     0.05  -0.02  -0.03
  13   6    -0.02  -0.02   0.03    -0.01  -0.00   0.00     0.02  -0.02   0.01
  14   1    -0.02  -0.01  -0.07    -0.02  -0.00   0.00     0.15   0.04  -0.03
  15   1     0.01  -0.04   0.05    -0.02  -0.01   0.02     0.05   0.08  -0.17
  16   1    -0.01  -0.02   0.02     0.01  -0.02   0.01    -0.08   0.13  -0.04
  17   1    -0.08  -0.12   0.22    -0.15  -0.28   0.54    -0.01  -0.06   0.13
  18   1    -0.16  -0.34   0.57     0.06   0.15  -0.25     0.00  -0.01   0.03
  19   1     0.11   0.20  -0.38    -0.03  -0.09   0.15    -0.03   0.02  -0.00
  20   1    -0.01  -0.07   0.04    -0.01  -0.07   0.04     0.05   0.38  -0.23
  21   1    -0.01   0.02   0.01    -0.01   0.03   0.01     0.05  -0.12  -0.09
  22   1     0.00  -0.00   0.00     0.00   0.00  -0.01     0.00   0.00   0.00
  23   1    -0.01   0.04   0.00    -0.02   0.07  -0.00     0.06  -0.52   0.03
  24   1     0.07   0.14  -0.24     0.11   0.22  -0.40     0.02   0.02  -0.09
                     31                     32                     33
                        a                      a                      a 
 Frequencies --  1012.3569              1015.7134              1046.9115
 Red. masses --     6.3708                 6.7226                 6.0163
 Frc consts  --     0.0000                 0.0000                 0.0000
 IR Inten    --    91.0629                32.6417                 8.4635
 Raman Activ --     0.0000                 0.0000                 0.0000
 Depolar     --     0.0000                 0.0000                 0.0000
 Atom AN      X      Y      Z        X      Y      Z        X      Y      Z
   1   8    -0.00  -0.03  -0.02    -0.01  -0.02  -0.01     0.03  -0.04   0.02
   2   8     0.09  -0.00   0.02    -0.09   0.01  -0.02    -0.01  -0.01  -0.01
   3   8     0.00   0.04  -0.04    -0.01   0.03  -0.03    -0.01   0.00   0.00
   4   7     0.27   0.06   0.10     0.27   0.06   0.06     0.10  -0.28  -0.06
   5   6     0.06  -0.01   0.10    -0.12   0.01   0.04     0.01  -0.25  -0.07
   6   6    -0.13  -0.07  -0.16    -0.12  -0.07  -0.12    -0.16   0.43   0.03
   7   6    -0.07   0.04  -0.04     0.09   0.00   0.02     0.04  -0.06  -0.12
   8   6     0.03  -0.24  -0.11    -0.04   0.24   0.12    -0.01   0.07   0.05
   9   6     0.01   0.19   0.12    -0.01  -0.26  -0.14    -0.01   0.10   0.07
  10   6     0.01   0.23   0.13    -0.01  -0.26  -0.14     0.04   0.04   0.04
  11   6     0.04  -0.25  -0.13    -0.03   0.26   0.13    -0.05   0.05   0.02
  12   6     0.03   0.05   0.13     0.04   0.04   0.08     0.04  -0.02  -0.01
  13   6    -0.07   0.01  -0.02     0.07   0.01   0.02     0.00  -0.05  -0.03
  14   1    -0.01  -0.01   0.02    -0.09  -0.01   0.02     0.47   0.06   0.01
  15   1     0.11  -0.01  -0.00    -0.00  -0.00   0.00    -0.37   0.10  -0.03
  16   1    -0.25   0.10  -0.08    -0.19   0.07  -0.07    -0.09   0.05   0.08
  17   1    -0.10  -0.10  -0.10     0.11   0.12   0.09     0.00   0.03  -0.00
  18   1    -0.11   0.12   0.02     0.13  -0.14  -0.05    -0.03   0.06   0.01
  19   1    -0.10  -0.12  -0.09     0.14   0.14   0.11    -0.08  -0.01  -0.04
  20   1    -0.16  -0.19  -0.05    -0.15  -0.23  -0.02    -0.05  -0.33   0.14
  21   1    -0.06   0.27  -0.14    -0.07   0.27  -0.12    -0.00   0.01   0.06
  22   1     0.01  -0.00   0.00    -0.03  -0.00  -0.01     0.05   0.02   0.02
  23   1    -0.18  -0.33   0.06    -0.18  -0.24   0.05    -0.06   0.13   0.02
  24   1    -0.14   0.15   0.04     0.15  -0.17  -0.05     0.09  -0.03   0.00
                     34                     35                     36
                        a                      a                      a 
 Frequencies --  1107.0924              1116.9465              1136.4451
 Red. masses --     5.3608                 5.7957                 3.3123
 Frc consts  --     0.0000                 0.0000                 0.0000
 IR Inten    --   114.1923               190.5489                45.2920
 Raman Activ --     0.0000                 0.0000                 0.0000
 Depolar     --     0.0000                 0.0000                 0.0000
 Atom AN      X      Y      Z        X      Y      Z        X      Y      Z
   1   8     0.03  -0.03   0.02     0.03  -0.03   0.02     0.01  -0.02   0.00
   2   8     0.13   0.14   0.11    -0.12  -0.13  -0.11     0.09   0.06   0.06
   3   8    -0.01  -0.01   0.01    -0.02  -0.01   0.00     0.00   0.00  -0.01
   4   7    -0.01  -0.17   0.04    -0.02  -0.19   0.08    -0.05  -0.06   0.06
   5   6    -0.08  -0.04   0.17    -0.09   0.03   0.30    -0.05   0.05   0.17
   6   6    -0.05   0.30  -0.17    -0.00   0.32  -0.30     0.11   0.09  -0.21
   7   6     0.01   0.12   0.03    -0.02   0.03  -0.02    -0.03  -0.10  -0.06
   8   6     0.07  -0.08  -0.02    -0.03   0.01  -0.00    -0.11   0.03  -0.02
   9   6    -0.05  -0.10  -0.06    -0.00  -0.02  -0.00     0.09   0.07   0.07
  10   6    -0.03  -0.13  -0.07    -0.03   0.07   0.03     0.09   0.05   0.05
  11   6     0.05  -0.14  -0.06     0.02   0.04   0.04    -0.08   0.06   0.01
  12   6     0.01  -0.03  -0.03    -0.00  -0.03  -0.02    -0.03  -0.01   0.02
  13   6    -0.03   0.18   0.09     0.04  -0.10  -0.04    -0.06  -0.03  -0.03
  14   1    -0.05  -0.01   0.07    -0.13  -0.02   0.06    -0.07  -0.01   0.01
  15   1     0.05   0.01  -0.00     0.11  -0.02   0.05     0.01  -0.03   0.07
  16   1     0.27   0.11  -0.16     0.35   0.13  -0.23     0.05   0.05  -0.09
  17   1     0.23   0.07   0.10    -0.04  -0.01  -0.01    -0.32  -0.12  -0.15
  18   1    -0.18   0.07  -0.01     0.07  -0.04  -0.02     0.29  -0.12  -0.00
  19   1     0.07  -0.02   0.01     0.12   0.07   0.06    -0.32  -0.12  -0.15
  20   1    -0.00  -0.04   0.00     0.00   0.01  -0.03     0.01   0.06  -0.03
  21   1     0.03  -0.05   0.02     0.03  -0.06   0.01     0.02  -0.05  -0.00
  22   1    -0.54  -0.15  -0.24     0.48   0.13   0.21    -0.22  -0.06  -0.10
  23   1     0.00  -0.06   0.01     0.01  -0.12   0.01     0.02  -0.07   0.01
  24   1    -0.13   0.04  -0.02    -0.11   0.08   0.01     0.50  -0.27  -0.01
                     37                     38                     39
                        a                      a                      a 
 Frequencies --  1151.4105              1185.8155              1191.6929
 Red. masses --     6.1133                 2.4557                 3.9628
 Frc consts  --     0.0000                 0.0000                 0.0000
 IR Inten    --    10.4587                55.5780                11.6380
 Raman Activ --     0.0000                 0.0000                 0.0000
 Depolar     --     0.0000                 0.0000                 0.0000
 Atom AN      X      Y      Z        X      Y      Z        X      Y      Z
   1   8     0.00   0.00  -0.03    -0.00   0.01  -0.01    -0.00   0.01  -0.00
   2   8    -0.01  -0.00  -0.00    -0.12   0.02  -0.02     0.01  -0.00   0.00
   3   8     0.02   0.01  -0.03    -0.01  -0.01  -0.00     0.01   0.01  -0.00
   4   7    -0.16  -0.10   0.06     0.00  -0.00   0.01    -0.01  -0.19  -0.13
   5   6    -0.06  -0.03   0.09    -0.04   0.02   0.00     0.08  -0.11  -0.16
   6   6     0.52   0.03  -0.31     0.02  -0.02  -0.03     0.06   0.26   0.26
   7   6    -0.05  -0.02   0.01     0.07  -0.04   0.00    -0.04   0.06   0.07
   8   6     0.02   0.02   0.02     0.05   0.15   0.09    -0.01  -0.03  -0.03
   9   6    -0.04   0.01  -0.01     0.09  -0.11  -0.03     0.03  -0.04  -0.01
  10   6    -0.00  -0.00  -0.00    -0.02   0.05   0.02     0.01  -0.00   0.00
  11   6     0.05  -0.02   0.00    -0.07  -0.02  -0.03    -0.03  -0.02  -0.02
  12   6    -0.11   0.02   0.14     0.01   0.01   0.01    -0.02  -0.01   0.02
  13   6    -0.00   0.01   0.00     0.18  -0.05   0.02    -0.03   0.01  -0.00
  14   1    -0.01  -0.00   0.04     0.00   0.00  -0.01    -0.41  -0.02   0.27
  15   1    -0.32  -0.03   0.15    -0.07  -0.01   0.04     0.36   0.07  -0.24
  16   1    -0.54   0.16  -0.02    -0.01  -0.01  -0.00    -0.33   0.31  -0.05
  17   1     0.11   0.06   0.05     0.21   0.13   0.13    -0.05  -0.03  -0.02
  18   1    -0.10   0.04   0.01     0.38  -0.22  -0.03     0.14  -0.09  -0.01
  19   1     0.10   0.03   0.05    -0.50  -0.22  -0.25    -0.01  -0.01  -0.00
  20   1     0.08   0.16  -0.02     0.00   0.01  -0.01     0.02  -0.14   0.09
  21   1     0.01  -0.08  -0.01    -0.01   0.02  -0.01    -0.02  -0.01   0.03
  22   1     0.01   0.00   0.00    -0.05  -0.00  -0.01     0.02   0.00   0.01
  23   1     0.10  -0.05  -0.02    -0.00   0.00   0.00     0.04   0.20  -0.03
  24   1    -0.05   0.03   0.00    -0.40   0.25   0.03    -0.01   0.00   0.00
                     40                     41                     42
                        a                      a                      a 
 Frequencies --  1207.0999              1252.8211              1273.3002
 Red. masses --     5.9946                 4.3675                 9.2344
 Frc consts  --     0.0000                 0.0000                 0.0000
 IR Inten    --   111.7726               198.7284                86.9449
 Raman Activ --     0.0000                 0.0000                 0.0000
 Depolar     --     0.0000                 0.0000                 0.0000
 Atom AN      X      Y      Z        X      Y      Z        X      Y      Z
   1   8    -0.00   0.01   0.00     0.06  -0.13   0.04     0.02  -0.05   0.02
   2   8    -0.17   0.02  -0.04     0.06  -0.00   0.01    -0.26   0.06  -0.04
   3   8    -0.00  -0.00   0.00     0.13   0.15  -0.01     0.04   0.06  -0.01
   4   7     0.01  -0.01  -0.00    -0.00   0.21   0.03    -0.01   0.04   0.01
   5   6    -0.16   0.01  -0.09     0.12  -0.08  -0.10     0.04  -0.06   0.07
   6   6    -0.02   0.04  -0.02    -0.02   0.22  -0.18     0.07   0.04  -0.02
   7   6     0.47  -0.04   0.14     0.00   0.01   0.05    -0.35   0.10  -0.07
   8   6     0.03   0.02   0.02     0.03  -0.02  -0.01    -0.10   0.15   0.06
   9   6     0.05  -0.02  -0.00     0.02   0.02   0.02    -0.24  -0.07  -0.10
  10   6     0.02  -0.13  -0.07    -0.01  -0.01  -0.01     0.20   0.02   0.07
  11   6    -0.03   0.12   0.06    -0.05  -0.01  -0.02     0.20  -0.09   0.00
  12   6     0.01  -0.01  -0.01    -0.16  -0.06  -0.01    -0.08  -0.01  -0.00
  13   6     0.28  -0.03   0.06    -0.11   0.00  -0.03     0.50  -0.12   0.07
  14   1    -0.26  -0.02   0.05    -0.27  -0.02   0.17     0.20   0.01  -0.04
  15   1    -0.18   0.02   0.01    -0.08   0.01  -0.01     0.21   0.03  -0.09
  16   1     0.01   0.01  -0.01    -0.03  -0.40   0.38    -0.05  -0.07   0.10
  17   1    -0.39  -0.18  -0.20     0.03   0.00   0.01    -0.27  -0.06  -0.11
  18   1    -0.36   0.20   0.03     0.09  -0.04   0.00     0.02  -0.07  -0.04
  19   1    -0.16  -0.04  -0.06     0.03   0.02   0.02     0.14  -0.00   0.04
  20   1    -0.00  -0.01   0.00    -0.18  -0.16  -0.02    -0.03  -0.03   0.00
  21   1     0.00   0.00   0.01     0.21  -0.34   0.10     0.04  -0.07   0.01
  22   1    -0.05  -0.00  -0.01     0.01  -0.00   0.00    -0.17  -0.03  -0.06
  23   1    -0.01  -0.01   0.00    -0.15  -0.21   0.03    -0.01  -0.04   0.00
  24   1    -0.15   0.06  -0.01    -0.04   0.02   0.00    -0.06   0.09   0.03
                     43                     44                     45
                        a                      a                      a 
 Frequencies --  1279.3426              1289.2132              1317.5173
 Red. masses --     5.3152                 8.2683                 4.8418
 Frc consts  --     0.0000                 0.0000                 0.0000
 IR Inten    --   170.9353               249.2440               108.9962
 Raman Activ --     0.0000                 0.0000                 0.0000
 Depolar     --     0.0000                 0.0000                 0.0000
 Atom AN      X      Y      Z        X      Y      Z        X      Y      Z
   1   8    -0.01   0.04  -0.01     0.09  -0.24   0.08    -0.04   0.06  -0.02
   2   8    -0.16  -0.04  -0.07    -0.00  -0.02  -0.01     0.00   0.03   0.02
   3   8    -0.03  -0.04   0.00     0.26   0.33  -0.03     0.02  -0.01   0.01
   4   7     0.01   0.02  -0.01    -0.03   0.09  -0.07     0.01   0.07  -0.09
   5   6     0.21   0.03  -0.02    -0.21   0.06   0.06     0.34   0.09  -0.09
   6   6    -0.06   0.04  -0.01     0.08  -0.14   0.16    -0.12  -0.16   0.14
   7   6    -0.18  -0.21  -0.13     0.11  -0.04  -0.03    -0.11  -0.11  -0.04
   8   6    -0.16   0.00  -0.04    -0.01  -0.02  -0.01     0.08   0.08   0.06
   9   6     0.00  -0.09  -0.06     0.07  -0.04  -0.00    -0.16   0.11   0.01
  10   6    -0.04   0.13   0.05    -0.05   0.00  -0.01    -0.03   0.06   0.02
  11   6     0.20   0.03   0.07    -0.00   0.04   0.03     0.08   0.00   0.02
  12   6     0.05   0.00   0.01    -0.39  -0.08  -0.07     0.04  -0.03   0.01
  13   6     0.24   0.12   0.13    -0.02   0.05   0.02     0.05  -0.17  -0.08
  14   1    -0.22  -0.02   0.09     0.22   0.01  -0.17    -0.18  -0.01   0.08
  15   1     0.02  -0.03   0.04     0.18   0.02  -0.08    -0.38  -0.07   0.24
  16   1     0.02  -0.03   0.03    -0.03   0.26  -0.23     0.11   0.32  -0.34
  17   1     0.30   0.16   0.17     0.08   0.03   0.03    -0.07  -0.02  -0.02
  18   1    -0.38   0.18   0.01    -0.12   0.07   0.01     0.10  -0.05   0.00
  19   1    -0.27  -0.14  -0.15    -0.12  -0.04  -0.06     0.12   0.04   0.06
  20   1    -0.01  -0.03   0.02    -0.13  -0.14  -0.03    -0.12  -0.13  -0.04
  21   1     0.01  -0.02   0.01     0.13  -0.26   0.07     0.11  -0.23   0.10
  22   1     0.10   0.03   0.05     0.06   0.02   0.03    -0.11  -0.03  -0.05
  23   1    -0.00  -0.03  -0.00    -0.11  -0.04   0.00    -0.14  -0.02   0.01
  24   1     0.29  -0.14   0.00     0.04  -0.04  -0.01    -0.05   0.04   0.01
                     46                     47                     48
                        a                      a                      a 
 Frequencies --  1327.7628              1339.7676              1389.5700
 Red. masses --     8.7612                10.7515                 1.7437
 Frc consts  --     0.0000                 0.0000                 0.0000
 IR Inten    --   595.4501                 5.5116               130.7241
 Raman Activ --     0.0000                 0.0000                 0.0000
 Depolar     --     0.0000                 0.0000                 0.0000
 Atom AN      X      Y      Z        X      Y      Z        X      Y      Z
   1   8    -0.14   0.33  -0.12     0.03  -0.07   0.02    -0.01   0.01  -0.00
   2   8    -0.01  -0.01  -0.01    -0.07  -0.02  -0.03     0.00  -0.00  -0.00
   3   8    -0.18  -0.30   0.04     0.05   0.07  -0.01     0.01  -0.01  -0.03
   4   7    -0.05   0.16  -0.05     0.01  -0.02  -0.01     0.03   0.01  -0.23
   5   6    -0.17  -0.01   0.06     0.18   0.00  -0.05    -0.03  -0.00  -0.00
   6   6     0.12  -0.02   0.02    -0.06  -0.06   0.03     0.01  -0.00  -0.01
   7   6     0.04   0.10   0.04    -0.12   0.33   0.16     0.00   0.01   0.00
   8   6    -0.08  -0.04  -0.04    -0.34  -0.10  -0.14     0.02  -0.00   0.00
   9   6     0.10  -0.07  -0.01     0.28  -0.17  -0.02    -0.00  -0.01  -0.00
  10   6     0.07  -0.05  -0.01     0.36  -0.15   0.02    -0.01  -0.00  -0.01
  11   6    -0.08  -0.03  -0.04    -0.28  -0.15  -0.16     0.01   0.00   0.01
  12   6     0.42  -0.01   0.10    -0.10  -0.00  -0.02     0.00  -0.00   0.02
  13   6    -0.01   0.10   0.05     0.07   0.29   0.18    -0.01   0.01   0.00
  14   1     0.16   0.01  -0.09     0.01   0.01   0.04     0.03   0.01   0.01
  15   1     0.13   0.04  -0.08    -0.26  -0.02   0.12     0.04  -0.01  -0.01
  16   1    -0.09   0.08  -0.03     0.06   0.06  -0.09    -0.01   0.01   0.00
  17   1     0.00   0.00  -0.00    -0.03   0.00  -0.00    -0.01  -0.01  -0.00
  18   1    -0.02   0.01  -0.00     0.04  -0.03  -0.00     0.01  -0.01  -0.00
  19   1    -0.03  -0.01  -0.01     0.03   0.00   0.01    -0.01  -0.01  -0.01
  20   1    -0.17  -0.17  -0.03     0.02   0.02  -0.01     0.30   0.13   0.20
  21   1     0.20  -0.43   0.10    -0.03   0.05   0.01    -0.18   0.14   0.76
  22   1     0.05   0.01   0.02     0.11   0.04   0.05     0.00   0.00   0.00
  23   1    -0.12  -0.11   0.01    -0.01   0.02   0.00    -0.26  -0.31   0.00
  24   1     0.01  -0.01  -0.00     0.02   0.01   0.01     0.00  -0.00  -0.00
                     49                     50                     51
                        a                      a                      a 
 Frequencies --  1398.6366              1427.0064              1475.4216
 Red. masses --     2.0099                 9.6856                 1.9975
 Frc consts  --     0.0000                 0.0000                 0.0000
 IR Inten    --   121.7877                22.3268                 1.6372
 Raman Activ --     0.0000                 0.0000                 0.0000
 Depolar     --     0.0000                 0.0000                 0.0000
 Atom AN      X      Y      Z        X      Y      Z        X      Y      Z
   1   8    -0.00   0.01  -0.00     0.00  -0.00   0.00    -0.00   0.00   0.00
   2   8     0.01   0.01   0.00    -0.03  -0.08  -0.05    -0.00   0.00  -0.00
   3   8     0.01   0.01   0.01     0.00   0.01   0.00     0.00   0.00  -0.00
   4   7    -0.17   0.19  -0.07    -0.01   0.01  -0.00    -0.01   0.01  -0.02
   5   6    -0.00   0.02  -0.02     0.02  -0.06  -0.05     0.16  -0.06   0.24
   6   6    -0.05  -0.03   0.02    -0.01  -0.01   0.01     0.00  -0.01   0.02
   7   6    -0.00  -0.02  -0.01     0.01   0.35   0.19    -0.01  -0.00   0.02
   8   6    -0.01   0.02   0.01     0.29  -0.14   0.01    -0.01  -0.02  -0.02
   9   6     0.03  -0.00   0.01    -0.31  -0.07  -0.13    -0.03   0.02   0.01
  10   6     0.03  -0.01   0.00    -0.32  -0.05  -0.12    -0.01   0.02   0.01
  11   6    -0.03   0.01  -0.00     0.34  -0.11   0.03    -0.00  -0.02  -0.01
  12   6    -0.00  -0.01  -0.01    -0.01  -0.00  -0.00    -0.01  -0.01  -0.00
  13   6    -0.02  -0.02  -0.02    -0.02   0.33   0.17     0.02   0.00   0.01
  14   1     0.02   0.02   0.04     0.07   0.02   0.02    -0.26  -0.28  -0.55
  15   1     0.00  -0.04   0.04    -0.14   0.00   0.03    -0.23   0.52  -0.36
  16   1     0.03   0.03  -0.05     0.01   0.01  -0.01    -0.00   0.00  -0.00
  17   1    -0.01   0.00  -0.00    -0.09  -0.12  -0.09     0.03   0.01   0.01
  18   1     0.01   0.00   0.00     0.13  -0.15  -0.05     0.04  -0.02  -0.00
  19   1     0.00   0.01   0.01    -0.13  -0.13  -0.11     0.02   0.00   0.01
  20   1     0.20  -0.29   0.56    -0.00  -0.03   0.03     0.03  -0.02   0.05
  21   1     0.02  -0.02  -0.16     0.01  -0.01  -0.03    -0.01   0.02   0.01
  22   1    -0.01  -0.00  -0.00     0.15   0.03   0.06    -0.00  -0.00  -0.00
  23   1     0.52  -0.40  -0.15     0.03  -0.01  -0.01     0.03  -0.03  -0.01
  24   1    -0.02   0.02   0.00     0.12  -0.15  -0.05     0.02  -0.01   0.00
                     52                     53                     54
                        a                      a                      a 
 Frequencies --  1492.0352              1584.4649              1609.1853
 Red. masses --     9.6665                11.5545                11.5448
 Frc consts  --     0.0000                 0.0000                 0.0000
 IR Inten    --   168.1971                25.3170                69.8502
 Raman Activ --     0.0000                 0.0000                 0.0000
 Depolar     --     0.0000                 0.0000                 0.0000
 Atom AN      X      Y      Z        X      Y      Z        X      Y      Z
   1   8    -0.00   0.00  -0.00    -0.00  -0.00   0.00     0.00   0.00  -0.00
   2   8     0.10  -0.02   0.02     0.03   0.04   0.03     0.02  -0.01   0.00
   3   8    -0.01  -0.01   0.00    -0.00  -0.00   0.00    -0.00  -0.00   0.00
   4   7     0.00  -0.01   0.00    -0.00   0.00   0.00     0.00   0.00  -0.00
   5   6     0.12  -0.01   0.04     0.01  -0.04  -0.02    -0.04   0.01  -0.01
   6   6     0.00   0.00  -0.00     0.00  -0.00   0.00    -0.01  -0.00   0.01
   7   6    -0.39   0.01  -0.10    -0.02   0.44   0.23     0.28  -0.06   0.05
   8   6     0.18   0.21   0.16    -0.15  -0.23  -0.17    -0.43  -0.07  -0.16
   9   6     0.18  -0.21  -0.07     0.14  -0.26  -0.11    -0.43   0.17  -0.02
  10   6     0.23  -0.25  -0.07    -0.10   0.25   0.11     0.43  -0.15   0.04
  11   6     0.21   0.18   0.16     0.15   0.26   0.18     0.39   0.06   0.14
  12   6     0.01   0.00   0.00     0.00   0.00  -0.00     0.00   0.00  -0.00
  13   6    -0.42   0.07  -0.08    -0.02  -0.47  -0.26    -0.24   0.04  -0.04
  14   1     0.00  -0.02  -0.03     0.05   0.01   0.00    -0.02   0.00   0.00
  15   1     0.00   0.03  -0.01    -0.07   0.02   0.01     0.00  -0.00   0.00
  16   1     0.00   0.00  -0.01     0.00  -0.00   0.00     0.00   0.00  -0.00
  17   1    -0.21  -0.06  -0.09     0.08  -0.01   0.02     0.07   0.06   0.05
  18   1    -0.21   0.08  -0.01    -0.09   0.00  -0.02     0.08  -0.06  -0.01
  19   1    -0.21  -0.06  -0.09    -0.08   0.01  -0.02    -0.06  -0.05  -0.05
  20   1    -0.01   0.01  -0.02    -0.00  -0.00  -0.00     0.00   0.00   0.00
  21   1     0.00  -0.00  -0.00     0.00  -0.00  -0.00    -0.00   0.00   0.00
  22   1     0.06   0.01   0.02    -0.09  -0.02  -0.04     0.02   0.01   0.01
  23   1    -0.01   0.01   0.00     0.00   0.00   0.00     0.00  -0.00  -0.00
  24   1    -0.20   0.09  -0.01     0.05   0.02   0.02    -0.07   0.07   0.02
                     55                     56                     57
                        a                      a                      a 
 Frequencies --  1731.0757              2541.6313              2983.3533
 Red. masses --    12.9073                 1.8330                 1.8878
 Frc consts  --     0.0000                 0.0000                 0.0000
 IR Inten    --   769.1545               808.6215                30.0058
 Raman Activ --     0.0000                 0.0000                 0.0000
 Depolar     --     0.0000                 0.0000                 0.0000
 Atom AN      X      Y      Z        X      Y      Z        X      Y      Z
   1   8     0.14  -0.40   0.13     0.00  -0.01   0.00    -0.00   0.00  -0.00
   2   8    -0.00  -0.00  -0.00     0.00   0.00   0.00     0.00  -0.00   0.00
   3   8    -0.15  -0.26   0.03     0.00  -0.03   0.01    -0.00  -0.00   0.00
   4   7     0.01   0.01  -0.00    -0.23  -0.08  -0.04    -0.00  -0.00  -0.00
   5   6    -0.00   0.00  -0.00    -0.00   0.00  -0.00     0.04   0.24   0.14
   6   6     0.01  -0.02   0.01    -0.01  -0.03   0.01    -0.01  -0.02  -0.03
   7   6     0.00  -0.00   0.00    -0.00  -0.00  -0.00     0.00   0.01   0.00
   8   6     0.00   0.00   0.00    -0.00   0.00  -0.00     0.00  -0.00  -0.00
   9   6    -0.00   0.00   0.00     0.00   0.00  -0.00    -0.00  -0.00  -0.00
  10   6    -0.00  -0.00  -0.00     0.00  -0.00   0.00    -0.00   0.00   0.00
  11   6    -0.00  -0.00  -0.00     0.00   0.00   0.00     0.00   0.00   0.00
  12   6     0.01   0.81  -0.20     0.02   0.03  -0.00    -0.00  -0.00  -0.00
  13   6     0.00   0.00   0.00    -0.00   0.00  -0.00    -0.00  -0.00  -0.00
  14   1    -0.01  -0.00  -0.00     0.00  -0.00   0.00     0.08  -0.31   0.13
  15   1    -0.00   0.00  -0.00     0.00  -0.00   0.00    -0.23  -0.57  -0.63
  16   1    -0.03   0.03  -0.02    -0.01  -0.01  -0.01     0.03   0.11   0.12
  17   1    -0.00  -0.00  -0.00     0.00  -0.00  -0.00    -0.00   0.00   0.00
  18   1     0.00  -0.00  -0.00    -0.00   0.00   0.00     0.01   0.01   0.01
  19   1     0.00  -0.00  -0.00    -0.00   0.00   0.00    -0.00   0.00   0.00
  20   1    -0.01  -0.02   0.01    -0.01  -0.01  -0.01    -0.00  -0.00   0.00
  21   1     0.02  -0.13   0.04     0.84   0.46   0.11    -0.00  -0.00   0.00
  22   1     0.00   0.00   0.00    -0.00  -0.00  -0.00    -0.00   0.00  -0.00
  23   1    -0.01  -0.02  -0.00    -0.01  -0.00   0.01     0.00   0.00   0.00
  24   1    -0.00   0.00   0.00    -0.00  -0.00  -0.00    -0.00  -0.00  -0.00
                     58                     59                     60
                        a                      a                      a 
 Frequencies --  2999.4034              3009.5091              3069.5395
 Red. masses --     1.5737                 1.7931                 1.7852
 Frc consts  --     0.0000                 0.0000                 0.0000
 IR Inten    --    29.1503                28.0445                33.0208
 Raman Activ --     0.0000                 0.0000                 0.0000
 Depolar     --     0.0000                 0.0000                 0.0000
 Atom AN      X      Y      Z        X      Y      Z        X      Y      Z
   1   8    -0.00   0.00  -0.00    -0.00  -0.00   0.00     0.00  -0.00   0.00
   2   8     0.00   0.00   0.00     0.00  -0.00  -0.00    -0.00  -0.00  -0.00
   3   8    -0.00  -0.00   0.00    -0.00  -0.00   0.00    -0.00   0.00  -0.00
   4   7    -0.00   0.00  -0.00     0.00   0.00  -0.00     0.00  -0.00  -0.00
   5   6     0.08  -0.16   0.14     0.01   0.05   0.02    -0.00  -0.00  -0.00
   6   6     0.00   0.00   0.01     0.06   0.18   0.18     0.00  -0.00  -0.00
   7   6     0.00  -0.00   0.00    -0.00   0.00   0.00    -0.01  -0.00  -0.00
   8   6    -0.00   0.00   0.00     0.00  -0.00  -0.00     0.02  -0.02  -0.01
   9   6    -0.00  -0.00  -0.00    -0.00  -0.00  -0.00    -0.10  -0.16  -0.12
  10   6     0.00   0.00   0.00     0.00   0.00   0.00     0.00   0.00   0.00
  11   6     0.00  -0.00  -0.00     0.00  -0.00   0.00    -0.07   0.11   0.04
  12   6     0.00  -0.00   0.00     0.00   0.00   0.00    -0.00  -0.00  -0.00
  13   6    -0.00   0.00  -0.00     0.00  -0.00  -0.00    -0.01   0.00   0.00
  14   1    -0.19   0.83  -0.28     0.02  -0.08   0.03    -0.00   0.00  -0.00
  15   1    -0.09  -0.27  -0.25    -0.03  -0.09  -0.10     0.01   0.01   0.01
  16   1    -0.01  -0.02  -0.02    -0.21  -0.64  -0.67     0.00   0.00   0.00
  17   1     0.01  -0.01  -0.00    -0.00   0.01   0.00    -0.05   0.07   0.03
  18   1     0.00   0.00   0.00     0.00   0.00   0.00     0.35   0.59   0.44
  19   1    -0.00   0.00   0.00    -0.00   0.00   0.00     0.26  -0.41  -0.15
  20   1     0.00  -0.00   0.00    -0.01   0.01   0.01    -0.00   0.01   0.00
  21   1     0.00   0.00   0.00    -0.01   0.00   0.00     0.00   0.00   0.00
  22   1     0.00  -0.00  -0.00    -0.00   0.00   0.00     0.00   0.00   0.00
  23   1     0.00  -0.00   0.00     0.00  -0.00   0.01     0.00  -0.00   0.00
  24   1    -0.00  -0.00  -0.00    -0.00  -0.00  -0.00    -0.01  -0.02  -0.01
                     61                     62                     63
                        a                      a                      a 
 Frequencies --  3082.0314              3084.1635              3106.1293
 Red. masses --     1.8319                 1.8489                 1.8601
 Frc consts  --     0.0000                 0.0000                 0.0000
 IR Inten    --   128.8884                22.9761                62.2361
 Raman Activ --     0.0000                 0.0000                 0.0000
 Depolar     --     0.0000                 0.0000                 0.0000
 Atom AN      X      Y      Z        X      Y      Z        X      Y      Z
   1   8    -0.00   0.00   0.00    -0.00   0.00  -0.00    -0.00   0.00  -0.00
   2   8     0.00   0.00   0.00     0.00  -0.00   0.00     0.00   0.00   0.00
   3   8    -0.00   0.00  -0.00    -0.00  -0.00  -0.00    -0.00  -0.00  -0.00
   4   7    -0.00   0.00   0.00    -0.00   0.00   0.00    -0.00  -0.00  -0.00
   5   6    -0.00   0.00   0.00     0.00  -0.00   0.00     0.00  -0.00   0.00
   6   6     0.00   0.00   0.00    -0.00  -0.00  -0.00    -0.00   0.00   0.00
   7   6    -0.00   0.00  -0.00     0.01  -0.00   0.00     0.00   0.00   0.00
   8   6    -0.11   0.17   0.06     0.08  -0.13  -0.04     0.04  -0.06  -0.02
   9   6     0.03   0.05   0.04     0.06   0.10   0.07     0.01   0.01   0.01
  10   6    -0.02  -0.03  -0.02     0.03   0.04   0.03    -0.12  -0.19  -0.14
  11   6    -0.08   0.13   0.05    -0.09   0.14   0.05    -0.01   0.02   0.01
  12   6     0.00  -0.00   0.00     0.00  -0.00   0.00     0.00  -0.00   0.00
  13   6    -0.01  -0.00  -0.00    -0.01   0.00  -0.00    -0.01   0.00  -0.00
  14   1     0.00  -0.01   0.00    -0.00   0.01  -0.00    -0.00   0.00  -0.00
  15   1    -0.00  -0.00  -0.00    -0.00  -0.00  -0.00    -0.00  -0.00  -0.00
  16   1    -0.00  -0.00  -0.01    -0.00   0.00   0.00    -0.00  -0.00  -0.00
  17   1     0.38  -0.60  -0.21    -0.28   0.45   0.16    -0.13   0.20   0.07
  18   1    -0.11  -0.18  -0.13    -0.19  -0.32  -0.24    -0.02  -0.03  -0.02
  19   1     0.28  -0.44  -0.16     0.31  -0.49  -0.18     0.04  -0.06  -0.02
  20   1     0.00  -0.00  -0.00     0.00  -0.00  -0.00     0.00   0.00   0.00
  21   1    -0.00  -0.00  -0.00     0.00   0.00   0.00     0.00   0.00   0.00
  22   1     0.00  -0.00  -0.00     0.00   0.00   0.00     0.00  -0.01  -0.00
  23   1     0.00   0.00   0.00     0.00  -0.00   0.00     0.00  -0.00   0.00
  24   1     0.07   0.11   0.08    -0.10  -0.16  -0.11     0.43   0.67   0.47
                     64                     65                     66
                        a                      a                      a 
 Frequencies --  3292.6335              3322.3947              3461.0161
 Red. masses --     1.7929                 1.8114                 1.8634
 Frc consts  --     0.0000                 0.0000                 0.0000
 IR Inten    --   114.7452               130.1872               144.7927
 Raman Activ --     0.0000                 0.0000                 0.0000
 Depolar     --     0.0000                 0.0000                 0.0000
 Atom AN      X      Y      Z        X      Y      Z        X      Y      Z
   1   8     0.00  -0.00   0.00    -0.00   0.00  -0.00    -0.00   0.00   0.00
   2   8     0.00   0.00   0.00     0.00   0.00   0.00     0.10  -0.20  -0.08
   3   8     0.00  -0.00   0.00    -0.00   0.00  -0.00     0.00   0.00  -0.00
   4   7    -0.16   0.13   0.14     0.05  -0.01   0.24    -0.00   0.00   0.00
   5   6    -0.00   0.00   0.00     0.00   0.00   0.00     0.00  -0.00   0.00
   6   6    -0.00   0.01   0.00     0.00  -0.00   0.00    -0.00  -0.00  -0.00
   7   6     0.00  -0.00   0.00    -0.00  -0.00  -0.00    -0.00   0.00   0.00
   8   6    -0.00  -0.00  -0.00     0.00  -0.00  -0.00     0.00  -0.00  -0.00
   9   6    -0.00  -0.00  -0.00     0.00   0.00  -0.00     0.00  -0.00   0.00
  10   6     0.00  -0.00  -0.00    -0.00  -0.00  -0.00    -0.00  -0.00  -0.00
  11   6    -0.00   0.00  -0.00    -0.00   0.00   0.00    -0.00   0.00  -0.00
  12   6    -0.00   0.00  -0.00     0.00  -0.00   0.00     0.00  -0.00   0.00
  13   6    -0.00   0.00   0.00    -0.00   0.00  -0.00     0.01  -0.01  -0.00
  14   1     0.00  -0.00   0.00    -0.00   0.00  -0.00    -0.00   0.00  -0.00
  15   1     0.00  -0.00  -0.00    -0.00  -0.00  -0.00    -0.00   0.00  -0.00
  16   1    -0.00  -0.01  -0.01    -0.00  -0.00  -0.01     0.00   0.00   0.00
  17   1    -0.00   0.00   0.00    -0.00   0.00  -0.00     0.00   0.00   0.00
  18   1     0.00   0.00   0.01     0.00  -0.00   0.00    -0.00  -0.00  -0.00
  19   1    -0.00   0.00  -0.00     0.00  -0.00  -0.00     0.00  -0.00   0.00
  20   1     0.64  -0.49  -0.53     0.01   0.00   0.02     0.00  -0.00  -0.00
  21   1    -0.03   0.00   0.00     0.03   0.00   0.02    -0.00   0.00  -0.00
  22   1     0.00  -0.00  -0.00     0.00  -0.00  -0.00    -0.41   0.82   0.33
  23   1    -0.01   0.01   0.02    -0.21   0.04  -0.94    -0.00  -0.00  -0.00
  24   1    -0.00   0.00   0.00     0.00   0.00   0.00     0.00   0.01   0.00
