24
 energy: -40.020949357447 gnorm: 0.000480847405 xtb: 6.4.1 (afa7bdf)
O        -3.70120615249678    1.34729058943769   -0.30922424661851
O         4.57693918462386   -0.03496749477056    0.45669764684830
O        -3.95729108521646   -0.82084369007346    0.19460236844199
N        -1.62644606387541   -1.30637199388084    0.90904936523676
C        -0.92227283974091    0.34090741713401   -0.81713997692625
C        -1.77359589022485    0.08215600256421    0.42608011538408
C         0.54716465358755    0.23696486241793   -0.51126944154595
C         1.19210196405607    1.24130679940747    0.20350186233602
C         1.28307204364237   -0.87205697085163   -0.90558348054876
C         2.53058821077605    1.14017811995368    0.51989658421304
C         2.62790914642386   -0.98383408420357   -0.59746886140943
C        -3.30846573481582    0.24068774447058    0.06134551413354
C         3.26085735599831    0.02189651583043    0.12178335003364
H        -1.17175560239940    1.34117405940116   -1.17582210492003
H        -1.20420771007790   -0.36814798538410   -1.59782843554793
H        -1.53257983173045    0.80785169720186    1.20268221276867
H         0.63796511929597    2.11664029284990    0.50782336718520
H         0.81295443685873   -1.65446179844744   -1.48360598356060
H         3.18462355001671   -1.85095175700753   -0.92111503800542
H        -0.94402397837086   -1.83413369327063    0.35919523654372
H        -2.62280942338589   -1.66585940535221    0.73541639490648
H         4.97865724934972   -0.85236188040817    0.12577023904095
H        -1.39928694362771   -1.37213557119041    1.90214723641885
H         3.03607844410948    1.91805546821676    1.06978320398101
