      -----------------------------------------------------------      
     |                   =====================                   |     
     |                           x T B                           |     
     |                   =====================                   |     
     |                         S. Grimme                         |     
     |          Mulliken Center for Theoretical Chemistry        |     
     |                    University of Bonn                     |     
      -----------------------------------------------------------      

   * xtb version 6.4.1 (afa7bdf) compiled by 'ehlert@majestix' on 2021-06-10

   xtb is free software: you can redistribute it and/or modify it under
   the terms of the GNU Lesser General Public License as published by
   the Free Software Foundation, either version 3 of the License, or
   (at your option) any later version.
   
   xtb is distributed in the hope that it will be useful,
   but WITHOUT ANY WARRANTY; without even the implied warranty of
   MERCHANTABILITY or FITNESS FOR A PARTICULAR PURPOSE.  See the
   GNU Lesser General Public License for more details.
   
   Cite this work as:
   * C. Bannwarth, E. Caldeweyher, S. Ehlert, A. Hansen, P. Pracht,
     J. Seibert, S. Spicher, S. Grimme, WIREs Comput. Mol. Sci., 2020, 11,
     e01493. DOI: 10.1002/wcms.1493
   
   for GFN2-xTB:
   * C. Bannwarth, S. Ehlert and S. Grimme., J. Chem. Theory Comput., 2019,
     15, 1652-1671. DOI: 10.1021/acs.jctc.8b01176
   for GFN1-xTB:
   * S. Grimme, C. Bannwarth, P. Shushkov, J. Chem. Theory Comput., 2017,
     13, 1989-2009. DOI: 10.1021/acs.jctc.7b00118
   for GFN0-xTB:
   * P. Pracht, E. Caldeweyher, S. Ehlert, S. Grimme, ChemRxiv, 2019, preprint.
     DOI: 10.26434/chemrxiv.8326202.v1
   for GFN-FF:
   * S. Spicher and S. Grimme, Angew. Chem. Int. Ed., 2020, 59, 15665-15673.
     DOI: 10.1002/anie.202004239
   
   for DFT-D4:
   * E. Caldeweyher, C. Bannwarth and S. Grimme, J. Chem. Phys., 2017,
     147, 034112. DOI: 10.1063/1.4993215
   * E. Caldeweyher, S. Ehlert, A. Hansen, H. Neugebauer, S. Spicher,
     C. Bannwarth and S. Grimme, J. Chem. Phys., 2019, 150, 154122.
     DOI: 10.1063/1.5090222
   * E. Caldeweyher, J.-M. Mewes, S. Ehlert and S. Grimme, Phys. Chem. Chem. Phys.
     2020, 22, 8499-8512. DOI: 10.1039/D0CP00502A
   
   for sTDA-xTB:
   * S. Grimme and C. Bannwarth, J. Chem. Phys., 2016, 145, 054103.
     DOI: 10.1063/1.4959605
   
   in the mass-spec context:
   * V. Asgeirsson, C. Bauer and S. Grimme, Chem. Sci., 2017, 8, 4879.
     DOI: 10.1039/c7sc00601b
   * J. Koopman and S. Grimme, ACS Omega 2019, 4, 12, 15120-15133.
     DOI: 10.1021/acsomega.9b02011
   
   for metadynamics refer to:
   * S. Grimme, J. Chem. Theory Comput., 2019, 155, 2847-2862
     DOI: 10.1021/acs.jctc.9b00143
   
   for SPH calculations refer to:
   * S. Spicher and S. Grimme, J. Chem. Theory Comput., 2021, 17, 1701-1714
     DOI: 10.1021/acs.jctc.0c01306
   
   with help from (in alphabetical order)
   P. Atkinson, C. Bannwarth, F. Bohle, G. Brandenburg, E. Caldeweyher
   M. Checinski, S. Dohm, S. Ehlert, S. Ehrlich, I. Gerasimov, J. Koopman
   C. Lavigne, S. Lehtola, F. März, M. Müller, F. Musil, H. Neugebauer
   J. Pisarek, C. Plett, P. Pracht, J. Seibert, P. Shushkov, S. Spicher
   M. Stahn, M. Steiner, T. Strunk, J. Stückrath, T. Rose, and J. Unsleber
   
 * started run on 2021/11/15 at 09:36:19.907     

           -------------------------------------------------
          |                Calculation Setup                |
           -------------------------------------------------

          program call               : xtb 29_pyrrolidine.xyz --gfn2 --chrg 0 --uhf 0 --alpb water --ohess -P 1
          coordinate file            : 29_pyrrolidine.xyz
          omp threads                :                     1
          number of atoms            :                    14
          number of electrons        :                    30
          charge                     :                     0
          spin                       :                   0.0
          first test random number   :      0.00430149043241

   ID    Z sym.   atoms
    1    6 C      1-4
    2    1 H      5-12, 14
    3    7 N      13

           -------------------------------------------------
          |                 G F N 2 - x T B                 |
           -------------------------------------------------

        Reference                      10.1021/acs.jctc.8b01176
      * Hamiltonian:
        H0-scaling (s, p, d)           1.850000    2.230000    2.230000
        zeta-weighting                 0.500000
      * Dispersion:
        s8                             2.700000
        a1                             0.520000
        a2                             5.000000
        s9                             5.000000
      * Repulsion:
        kExp                           1.500000    1.000000
        rExp                           1.000000
      * Coulomb:
        alpha                          2.000000
        third order                    shell-resolved
        anisotropic                    true
        a3                             3.000000
        a5                             4.000000
        cn-shift                       1.200000
        cn-exp                         4.000000
        max-rad                        5.000000

      * Solvation model:               ALPB
        Solvent                        water
        Parameter file                 internal GFN2-xTB/ALPB
        Dielectric constant                8.0200E+01
        Reference state                gsolv [1 M gas/solution]
        Free energy shift                  1.0808E-03 Eh       6.7819E-01 kcal/mol
        Temperature                        2.9815E+02 K
        Density                            1.0000E+00 kg/L
        Solvent mass                       1.8000E+01 g/mol
        Interaction kernel             P16
        Born radius scaling (c1)           1.4744E+00
        Born radii integrator          GBOBC
        Born offset                        0.0000E+00 a0       0.0000E+00 AA
        H-bond correction              true
        Ion screening                  false
        Surface tension                    1.0000E-05 Eh       1.5569E+01 dyn/cm
        Grid points                               230 per atom

          ...................................................
          :                      SETUP                      :
          :.................................................:
          :  # basis functions                  29          :
          :  # atomic orbitals                  29          :
          :  # shells                           19          :
          :  # electrons                        30          :
          :  max. iterations                   250          :
          :  Hamiltonian                  GFN2-xTB          :
          :  restarted?                      false          :
          :  GBSA solvation                   true          :
          :  PC potential                    false          :
          :  electronic temp.          300.0000000     K    :
          :  accuracy                    1.0000000          :
          :  -> integral cutoff          0.2500000E+02      :
          :  -> integral neglect         0.1000000E-07      :
          :  -> SCF convergence          0.1000000E-05 Eh   :
          :  -> wf. convergence          0.1000000E-03 e    :
          :  Broyden damping             0.4000000          :
          ...................................................

 iter      E             dE          RMSdq      gap      omega  full diag
   1    -16.2624939 -0.162625E+02  0.268E+00   11.09       0.0  T
   2    -16.2744677 -0.119738E-01  0.158E+00   11.00       1.0  T
   3    -16.2751409 -0.673180E-03  0.478E-01   10.98       1.0  T
   4    -16.2752130 -0.720940E-04  0.834E-02   10.93       1.0  T
   5    -16.2752205 -0.753067E-05  0.339E-02   10.91       1.0  T
   6    -16.2752208 -0.230090E-06  0.790E-03   10.91       3.4  T
   7    -16.2752209 -0.144573E-06  0.189E-03   10.91      14.1  T
   8    -16.2752209 -0.303710E-08  0.392E-04   10.91      68.2  T
   9    -16.2752209 -0.308873E-09  0.187E-04   10.91     142.8  T

   *** convergence criteria satisfied after 9 iterations ***

         #    Occupation            Energy/Eh            Energy/eV
      -------------------------------------------------------------
         1        2.0000           -0.6434959             -17.5104
       ...           ...                  ...                  ...
         9        2.0000           -0.4947624             -13.4632
        10        2.0000           -0.4629067             -12.5963
        11        2.0000           -0.4509380             -12.2706
        12        2.0000           -0.4439717             -12.0811
        13        2.0000           -0.4349676             -11.8361
        14        2.0000           -0.4222074             -11.4888
        15        2.0000           -0.3666570              -9.9772 (HOMO)
        16                          0.0343565               0.9349 (LUMO)
        17                          0.0404516               1.1007
        18                          0.0834746               2.2715
        19                          0.0994187               2.7053
        20                          0.1044026               2.8409
       ...                                ...                  ...
        29                          0.3315626               9.0223
      -------------------------------------------------------------
                  HL-Gap            0.4010136 Eh           10.9121 eV
             Fermi-level           -0.1661503 Eh           -4.5212 eV

 SCC (total)                   0 d,  0 h,  0 min,  0.005 sec
 SCC setup                      ...        0 min,  0.000 sec (  7.378%)
 Dispersion                     ...        0 min,  0.000 sec (  1.380%)
 classical contributions        ...        0 min,  0.000 sec (  0.443%)
 integral evaluation            ...        0 min,  0.001 sec ( 14.600%)
 iterations                     ...        0 min,  0.002 sec ( 45.085%)
 molecular gradient             ...        0 min,  0.001 sec ( 28.301%)
 printout                       ...        0 min,  0.000 sec (  2.417%)

         :::::::::::::::::::::::::::::::::::::::::::::::::::::
         ::                     SUMMARY                     ::
         :::::::::::::::::::::::::::::::::::::::::::::::::::::
         :: total energy             -16.073240852240 Eh    ::
         :: total w/o Gsasa/hb       -16.071296128518 Eh    ::
         :: gradient norm              0.022300943167 Eh/a0 ::
         :: HOMO-LUMO gap             10.912134509683 eV    ::
         ::.................................................::
         :: SCC energy               -16.275220904026 Eh    ::
         :: -> isotropic ES            0.011386994660 Eh    ::
         :: -> anisotropic ES          0.004918937101 Eh    ::
         :: -> anisotropic XC          0.013099183700 Eh    ::
         :: -> dispersion             -0.007472373609 Eh    ::
         :: -> Gsolv                  -0.003025338607 Eh    ::
         ::    -> Gelec               -0.001080614886 Eh    ::
         ::    -> Gsasa               -0.001886420800 Eh    ::
         ::    -> Ghb                 -0.001139062620 Eh    ::
         ::    -> Gshift               0.001080759698 Eh    ::
         :: repulsion energy           0.201972441989 Eh    ::
         :: add. restraining           0.000000000000 Eh    ::
         :: total charge              -0.000000000000 e     ::
         :::::::::::::::::::::::::::::::::::::::::::::::::::::

      ----------------------------------------------------------- 
     |                   =====================                   |
     |                        A N C O P T                        |
     |                   =====================                   |
     |               Approximate Normal Coordinate               |
     |                Rational Function Optimizer                |
      ----------------------------------------------------------- 

          ...................................................
          :                      SETUP                      :
          :.................................................:
          :   optimization level            normal          :
          :   max. optcycles                   200          :
          :   ANC micro-cycles                  20          :
          :   degrees of freedom                36          :
          :.................................................:
          :   RF solver                   davidson          :
          :   write xtbopt.log                true          :
          :   linear?                        false          :
          :   energy convergence         0.5000000E-05 Eh   :
          :   grad. convergence          0.1000000E-02 Eh/α :
          :   maximium RF displ.         1.0000000          :
          :   Hlow (freq-cutoff)         0.1000000E-01      :
          :   Hmax (freq-cutoff)         5.0000000          :
          :   S6 in model hess.         20.0000000          :
          ...................................................

generating ANC from model Hessian ...
Using Lindh-Hessian (1995)
 Shifting diagonal of input Hessian by   2.011184852050065E-004
 Lowest  eigenvalues of input Hessian
    0.000000    0.000000    0.000000    0.000000    0.000000    0.000000
    0.010000    0.016097    0.028797    0.039551    0.044280    0.046783
    0.048055    0.050866    0.052408    0.056919    0.058391    0.074307
 Highest eigenvalues
    1.165411    1.183514    1.191961    1.195403    1.305684    1.310607
 

........................................................................
.............................. CYCLE    1 ..............................
........................................................................
   1    -16.2752209 -0.162752E+02  0.176E-05   10.91       0.0  T
   2    -16.2752209 -0.294875E-12  0.104E-05   10.91    2561.0  T
   3    -16.2752209 -0.639488E-13  0.323E-06   10.91    8280.0  T
     SCC iter.                  ...        0 min,  0.001 sec
     gradient                   ...        0 min,  0.001 sec
 * total energy  :   -16.0732409 Eh     change       -0.3413447E-10 Eh
   gradient norm :     0.0223008 Eh/α   predicted     0.0000000E+00 (-100.00%)
   displ. norm   :     0.1135650 α      lambda       -0.1506475E-02
   maximum displ.:     0.0542575 α      in ANC's #2, #12, #23, ...

........................................................................
.............................. CYCLE    2 ..............................
........................................................................
   1    -16.2824971 -0.162825E+02  0.131E-01   10.92       0.0  T
   2    -16.2824994 -0.224504E-05  0.776E-02   10.92       1.0  T
   3    -16.2824998 -0.408197E-06  0.641E-03   10.92       4.2  T
   4    -16.2824999 -0.143706E-06  0.294E-03   10.92       9.1  T
   5    -16.2824999 -0.345222E-08  0.971E-04   10.92      27.5  T
   6    -16.2824999 -0.558821E-09  0.241E-04   10.92     110.8  T
     SCC iter.                  ...        0 min,  0.001 sec
     gradient                   ...        0 min,  0.001 sec
 * total energy  :   -16.0741484 Eh     change       -0.9075332E-03 Eh
   gradient norm :     0.0086662 Eh/α   predicted    -0.7629515E-03 ( -15.93%)
   displ. norm   :     0.0669810 α      lambda       -0.2586550E-03
   maximum displ.:     0.0465084 α      in ANC's #3, #9, #12, ...

........................................................................
.............................. CYCLE    3 ..............................
........................................................................
   1    -16.2853765 -0.162854E+02  0.478E-02   10.98       0.0  T
   2    -16.2853780 -0.143143E-05  0.288E-02   10.99       1.0  T
   3    -16.2853781 -0.820181E-07  0.554E-03   10.99       4.8  T
   4    -16.2853781 -0.678143E-07  0.168E-03   10.99      15.9  T
   5    -16.2853781 -0.237083E-08  0.794E-04   10.99      33.7  T
   6    -16.2853781 -0.325866E-09  0.203E-04   10.99     132.0  T
     SCC iter.                  ...        0 min,  0.001 sec
     gradient                   ...        0 min,  0.001 sec
 * total energy  :   -16.0742931 Eh     change       -0.1447531E-03 Eh
   gradient norm :     0.0039119 Eh/α   predicted    -0.1299079E-03 ( -10.26%)
   displ. norm   :     0.0217563 α      lambda       -0.4149040E-04
   maximum displ.:     0.0111873 α      in ANC's #3, #9, #12, ...

........................................................................
.............................. CYCLE    4 ..............................
........................................................................
   1    -16.2854017 -0.162854E+02  0.250E-02   10.96       0.0  T
   2    -16.2854019 -0.210278E-06  0.148E-02   10.96       1.8  T
   3    -16.2854019  0.197971E-08  0.255E-03   10.96      10.5  T
   4    -16.2854020 -0.244773E-07  0.510E-04   10.96      52.4  T
   5    -16.2854020 -0.715374E-10  0.638E-05   10.96     418.6  T
     SCC iter.                  ...        0 min,  0.001 sec
     gradient                   ...        0 min,  0.001 sec
 * total energy  :   -16.0743180 Eh     change       -0.2485466E-04 Eh
   gradient norm :     0.0014452 Eh/α   predicted    -0.2075598E-04 ( -16.49%)
   displ. norm   :     0.0172239 α      lambda       -0.7292084E-05
   maximum displ.:     0.0109259 α      in ANC's #2, #9, #5, ...

........................................................................
.............................. CYCLE    5 ..............................
........................................................................
   1    -16.2849713 -0.162850E+02  0.143E-02   10.95       0.0  T
   2    -16.2849714 -0.797463E-07  0.835E-03   10.95       3.2  T
   3    -16.2849714 -0.387029E-08  0.168E-03   10.95      15.9  T
   4    -16.2849714 -0.806950E-08  0.432E-04   10.95      61.9  T
   5    -16.2849714 -0.743050E-10  0.867E-05   10.95     308.3  T
     SCC iter.                  ...        0 min,  0.001 sec
     gradient                   ...        0 min,  0.001 sec
 * total energy  :   -16.0743211 Eh     change       -0.3061209E-05 Eh
   gradient norm :     0.0006366 Eh/α   predicted    -0.3645544E-05 (  19.09%)
   displ. norm   :     0.0073093 α      lambda       -0.1582468E-05
   maximum displ.:     0.0041778 α      in ANC's #5, #2, #3, ...

   *** GEOMETRY OPTIMIZATION CONVERGED AFTER 5 ITERATIONS ***

------------------------------------------------------------------------
 total energy gain   :        -0.0010802 Eh       -0.6778 kcal/mol
 total RMSD          :         0.0461342 a0        0.0244 Å
 total power (kW/mol):        -0.5672141 (step) -115.7765 (real)
------------------------------------------------------------------------

 ANCopt (total)                0 d,  0 h,  0 min,  0.025 sec
 optimizer setup                ...        0 min,  0.000 sec (  0.674%)
 model hessian                  ...        0 min,  0.004 sec ( 15.274%)
 ANC generation                 ...        0 min,  0.000 sec (  0.808%)
 coordinate transformation      ...        0 min,  0.000 sec (  0.117%)
 single point calculation       ...        0 min,  0.019 sec ( 75.788%)
 optimization log               ...        0 min,  0.001 sec (  4.015%)
 hessian update                 ...        0 min,  0.000 sec (  0.114%)
 rational function              ...        0 min,  0.000 sec (  1.751%)

================
 final structure:
================
14
 xtb: 6.4.1 (afa7bdf)
C         0.76991016951608    1.02839130606774   -0.07324914263746
C        -0.76935646649057    1.02876690487882   -0.07352753084335
C        -1.14251605362164   -0.44643226864068    0.19544957962809
C         1.14230142352803   -0.44711721126395    0.19524408214924
H         1.15769118709929    1.34766091909617   -1.04079134230943
H         1.18188911880063    1.68471914324218    0.69027054683202
H        -1.15660515999709    1.34772920262406   -1.04138967056238
H        -1.18133259384335    1.68566270221762    0.68950218681246
H        -1.28151804025598   -0.60640943103134    1.26865720850048
H        -2.04760034244197   -0.75976093462305   -0.32239099689453
H         1.28158177546755   -0.60742158519184    1.26836807289185
H         2.04704891189951   -0.76082430762679   -0.32295626253747
N        -0.00038607865261   -1.24958901843542   -0.21921741635038
H        -0.00050985100788   -1.32072642131350   -1.23318731467916
 
 Bond Distances (Angstroems)
 ---------------------------
C1-C2=1.5393         C1-C4=1.5453         C1-H5=1.0902         C1-H6=1.0879         C2-C1=1.5393         C2-C3=1.5453         
C2-H7=1.0902         C2-H8=1.0879         C3-C2=1.5453         C3-H9=1.0939         C3-H10=1.0888        C3-N13=1.4565        
C4-C1=1.5453         C4-H11=1.0939        C4-H12=1.0888        C4-N13=1.4565        H5-C1=1.0902         H6-C1=1.0879         
H7-C2=1.0902         H8-C2=1.0879         H9-C3=1.0939         H10-C3=1.0888        H11-C4=1.0939        H12-C4=1.0888        
N13-C3=1.4565        N13-C4=1.4565        N13-H14=1.0165       H14-N13=1.0165       
 C  H  Rav=1.0902 sigma=0.0023  Rmin=1.0879  Rmax=1.0939     8
 C  C  Rav=1.5433 sigma=0.0028  Rmin=1.5393  Rmax=1.5453     3
 N  H  Rav=1.0165 sigma=0.0000  Rmin=1.0165  Rmax=1.0165     1
 N  C  Rav=1.4565 sigma=0.0000  Rmin=1.4565  Rmax=1.4565     2
 
 selected bond angles (degree)
 --------------------
C4-C1-C2=103.96                H5-C1-C2=110.82                H5-C1-C4=110.37                H6-C1-C2=112.25                
H6-C1-C4=111.28                H6-C1-H5=108.15                C3-C2-C1=103.96                H7-C2-C1=110.82                
H7-C2-C3=110.37                H8-C2-C1=112.25                H8-C2-C3=111.28                H8-C2-H7=108.15                
H9-C3-C2=109.94                H10-C3-C2=113.12               H10-C3-H9=108.60               N13-C3-C2=106.71               
N13-C3-H9=107.36               N13-C3-H10=110.96              H11-C4-C1=109.94               H12-C4-C1=113.12               
H12-C4-H11=108.59              N13-C4-C1=106.71               N13-C4-H11=107.36              N13-C4-H12=110.96              
 
 selected dihedral angles (degree)
 ---------------------------------
C3-C2-C1-C4=  0.02            C3-C2-C1-H5=118.60            C3-C2-C1-H6=239.65            H7-C2-C1-C4=241.45            
H7-C2-C1-H5=  0.03            H7-C2-C1-H6=121.07            H8-C2-C1-C4=120.41            H8-C2-C1-H5=238.98            
H8-C2-C1-H6=  0.03            H9-C3-C2-C1= 92.80            H9-C3-C2-H7=211.68            H9-C3-C2-H8=331.76            
H10-C3-C2-C1=214.39           H10-C3-C2-H7=333.27           H10-C3-C2-H8= 93.35           N13-C3-C2-C1=336.68           
N13-C3-C2-H7= 95.56           N13-C3-C2-H8=215.64           H11-C4-C1-C2=267.16           H11-C4-C1-H5=148.27           
H11-C4-C1-H6= 28.19           H12-C4-C1-C2=145.57           H12-C4-C1-H5= 26.69           H12-C4-C1-H6=266.61           
N13-C4-C1-C2= 23.28           N13-C4-C1-H5=264.39           N13-C4-C1-H6=144.31           
           -------------------------------------------------
          |                Final Singlepoint                |
           -------------------------------------------------

          ...................................................
          :                      SETUP                      :
          :.................................................:
          :  # basis functions                  29          :
          :  # atomic orbitals                  29          :
          :  # shells                           19          :
          :  # electrons                        30          :
          :  max. iterations                   250          :
          :  Hamiltonian                  GFN2-xTB          :
          :  restarted?                      false          :
          :  GBSA solvation                   true          :
          :  PC potential                    false          :
          :  electronic temp.          300.0000000     K    :
          :  accuracy                    1.0000000          :
          :  -> integral cutoff          0.2500000E+02      :
          :  -> integral neglect         0.1000000E-07      :
          :  -> SCF convergence          0.1000000E-05 Eh   :
          :  -> wf. convergence          0.1000000E-03 e    :
          :  Broyden damping             0.4000000          :
          ...................................................

 iter      E             dE          RMSdq      gap      omega  full diag
   1    -16.2849714 -0.162850E+02  0.290E-05   10.95       0.0  T
   2    -16.2849714 -0.376588E-12  0.188E-05   10.95    1419.0  T
   3    -16.2849714 -0.287770E-12  0.371E-06   10.95    7206.8  T

   *** convergence criteria satisfied after 3 iterations ***

         #    Occupation            Energy/Eh            Energy/eV
      -------------------------------------------------------------
         1        2.0000           -0.6458448             -17.5743
       ...           ...                  ...                  ...
         9        2.0000           -0.4947850             -13.4638
        10        2.0000           -0.4627214             -12.5913
        11        2.0000           -0.4510474             -12.2736
        12        2.0000           -0.4419968             -12.0273
        13        2.0000           -0.4362392             -11.8707
        14        2.0000           -0.4219213             -11.4811
        15        2.0000           -0.3618338              -9.8460 (HOMO)
        16                          0.0407090               1.1077 (LUMO)
        17                          0.0598588               1.6288
        18                          0.0920875               2.5058
        19                          0.1057460               2.8775
        20                          0.1188417               3.2338
       ...                                ...                  ...
        29                          0.3464594               9.4276
      -------------------------------------------------------------
                  HL-Gap            0.4025428 Eh           10.9537 eV
             Fermi-level           -0.1605624 Eh           -4.3691 eV

 SCC (total)                   0 d,  0 h,  0 min,  0.004 sec
 SCC setup                      ...        0 min,  0.000 sec (  7.380%)
 Dispersion                     ...        0 min,  0.000 sec (  0.700%)
 classical contributions        ...        0 min,  0.000 sec (  0.280%)
 integral evaluation            ...        0 min,  0.001 sec ( 18.795%)
 iterations                     ...        0 min,  0.001 sec ( 29.615%)
 molecular gradient             ...        0 min,  0.001 sec ( 39.489%)
 printout                       ...        0 min,  0.000 sec (  3.300%)

         :::::::::::::::::::::::::::::::::::::::::::::::::::::
         ::                     SUMMARY                     ::
         :::::::::::::::::::::::::::::::::::::::::::::::::::::
         :: total energy             -16.074321054466 Eh    ::
         :: total w/o Gsasa/hb       -16.072478898954 Eh    ::
         :: gradient norm              0.000636553198 Eh/a0 ::
         :: HOMO-LUMO gap             10.953746328095 eV    ::
         ::.................................................::
         :: SCC energy               -16.284971396394 Eh    ::
         :: -> isotropic ES            0.011274630307 Eh    ::
         :: -> anisotropic ES          0.004654343329 Eh    ::
         :: -> anisotropic XC          0.013039468802 Eh    ::
         :: -> dispersion             -0.007499373239 Eh    ::
         :: -> Gsolv                  -0.002823405082 Eh    ::
         ::    -> Gelec               -0.000981249569 Eh    ::
         ::    -> Gsasa               -0.001796288034 Eh    ::
         ::    -> Ghb                 -0.001126627176 Eh    ::
         ::    -> Gshift               0.001080759698 Eh    ::
         :: repulsion energy           0.210643001345 Eh    ::
         :: add. restraining           0.000000000000 Eh    ::
         :: total charge              -0.000000000000 e     ::
         :::::::::::::::::::::::::::::::::::::::::::::::::::::

           ------------------------------------------------- 
          |                Numerical Hessian                |
           ------------------------------------------------- 
step length          :   0.00500
SCC accuracy         :   0.30000
Hessian scale factor :   1.00000
frozen atoms in %    :   0.00000    0
RMS gradient         :   0.00064
estimated CPU  time      0.01 min
estimated wall time      0.01 min

writing file <hessian>.

 projected vibrational frequencies (cm⁻¹)
eigval :       -0.00    -0.00    -0.00     0.00     0.00     0.00
eigval :       71.80   291.44   611.27   639.20   813.71   860.71
eigval :      886.21   948.97   973.91   973.94  1008.89  1046.64
eigval :     1087.58  1127.22  1177.69  1180.34  1209.93  1247.53
eigval :     1273.46  1290.23  1294.53  1304.10  1385.67  1474.23
eigval :     1485.05  1487.19  1505.67  2943.21  2944.58  2977.50
eigval :     2991.83  3002.73  3005.66  3010.70  3020.66  3353.95
           -------------------------------------------------
          |                Property Printout                |
           -------------------------------------------------

    * Orbital Energies and Occupations

         #    Occupation            Energy/Eh            Energy/eV
      -------------------------------------------------------------
         1        2.0000           -0.6458448             -17.5743
       ...           ...                  ...                  ...
         3        2.0000           -0.6046207             -16.4526
         4        2.0000           -0.5619372             -15.2911
         5        2.0000           -0.5618046             -15.2875
         6        2.0000           -0.5365956             -14.6015
         7        2.0000           -0.5132682             -13.9667
         8        2.0000           -0.4960762             -13.4989
         9        2.0000           -0.4947851             -13.4638
        10        2.0000           -0.4627214             -12.5913
        11        2.0000           -0.4510474             -12.2736
        12        2.0000           -0.4419968             -12.0273
        13        2.0000           -0.4362392             -11.8707
        14        2.0000           -0.4219213             -11.4811
        15        2.0000           -0.3618338              -9.8460 (HOMO)
        16                          0.0407090               1.1077 (LUMO)
        17                          0.0598588               1.6288
        18                          0.0920875               2.5058
        19                          0.1057460               2.8775
        20                          0.1188417               3.2338
        21                          0.1464794               3.9859
        22                          0.1676868               4.5630
        23                          0.1679438               4.5700
        24                          0.1865796               5.0771
        25                          0.2064097               5.6167
        26                          0.2157683               5.8714
       ...                                ...                  ...
        29                          0.3464594               9.4276
      -------------------------------------------------------------
                  HL-Gap            0.4025428 Eh           10.9537 eV
             Fermi-level           -0.1605624 Eh           -4.3691 eV

     #   Z          covCN         q      C6AA      α(0)
     1   6 C        3.813    -0.069    21.804     6.646
     2   6 C        3.813    -0.069    21.804     6.646
     3   6 C        3.804     0.007    20.456     6.439
     4   6 C        3.804     0.007    20.456     6.439
     5   1 H        0.925     0.030     2.593     2.518
     6   1 H        0.925     0.034     2.537     2.491
     7   1 H        0.925     0.030     2.593     2.518
     8   1 H        0.925     0.034     2.537     2.491
     9   1 H        0.924     0.035     2.512     2.478
    10   1 H        0.925     0.031     2.569     2.507
    11   1 H        0.924     0.035     2.512     2.478
    12   1 H        0.925     0.031     2.569     2.507
    13   7 N        2.685    -0.293    27.555     7.796
    14   1 H        0.860     0.157     1.354     1.823

 Mol. C6AA /au·bohr⁶  :       1407.813849
 Mol. C8AA /au·bohr⁸  :      29507.668104
 Mol. α(0) /au        :         55.777684


Wiberg/Mayer (AO) data.
largest (>0.10) Wiberg bond orders for each atom

 ---------------------------------------------------------------------------
     #   Z sym  total        # sym  WBO       # sym  WBO       # sym  WBO
 ---------------------------------------------------------------------------
     1   6 C    3.997 --     2 C    1.006     4 C    0.989     5 H    0.984
                             6 H    0.983
     2   6 C    3.997 --     1 C    1.006     3 C    0.989     7 H    0.984
                             8 H    0.983
     3   6 C    3.986 --    13 N    1.016     2 C    0.989    10 H    0.980
                             9 H    0.976
     4   6 C    3.986 --    13 N    1.016     1 C    0.989    12 H    0.980
                            11 H    0.976
     5   1 H    0.999 --     1 C    0.984
     6   1 H    0.999 --     1 C    0.983
     7   1 H    0.999 --     2 C    0.984
     8   1 H    0.999 --     2 C    0.983
     9   1 H    0.999 --     3 C    0.976
    10   1 H    0.999 --     3 C    0.980
    11   1 H    0.999 --     4 C    0.976
    12   1 H    0.999 --     4 C    0.980
    13   7 N    3.055 --     4 C    1.016     3 C    1.016    14 H    0.954
    14   1 H    0.975 --    13 N    0.954
 ---------------------------------------------------------------------------

Topologies differ in total number of bonds
Writing topology from bond orders to xtbtopo.mol

molecular dipole:
                 x           y           z       tot (Debye)
 q only:        0.000       0.215      -0.118
   full:        0.000       0.501      -0.305       1.492
molecular quadrupole (traceless):
                xx          xy          yy          xz          yz          zz
 q only:        0.896      -0.001      -1.539       0.000       0.752       0.643
  q+dip:        0.521      -0.001      -4.023       0.000       1.330       3.502
   full:        1.107      -0.001      -3.798       0.000       1.442       2.691

           -------------------------------------------------
          |                Geometry Summary                 |
           -------------------------------------------------

      molecular mass/u    :       71.1211136
   center of mass at/Å    :       -0.0000098      -0.0210940      -0.0026034
  moments of inertia/u·Å² :        0.7270302E+02   0.7495025E+02   0.1279541E+03
rotational constants/cm⁻¹ :        0.2318698E+00   0.2249176E+00   0.1317475E+00

 * 12 selected distances

     #   Z          #   Z                                           value/Å
     1   6 C        2   6 C                                       1.5392667 (max)
     1   6 C        5   1 H                                       1.0901583
     1   6 C        6   1 H                                       1.0878673
     2   6 C        7   1 H                                       1.0901631
     2   6 C        8   1 H                                       1.0878652
     3   6 C        9   1 H                                       1.0939327
     3   6 C       10   1 H                                       1.0888119
     4   6 C       11   1 H                                       1.0939340
     4   6 C       12   1 H                                       1.0888121
     3   6 C       13   7 N                                       1.4565268
     4   6 C       13   7 N                                       1.4565281
    13   7 N       14   1 H                                       1.0164622 (min)

 * 4 distinct bonds (by element types)

   Z      Z             #   av. dist./Å        max./Å        min./Å
   1 H    6 C           8     1.0901931     1.0939340     1.0878652
   6 C    6 C           1     1.5392667     1.5392667     1.5392667
   1 H    7 N           1     1.0164622     1.0164622     1.0164622
   6 C    7 N           2     1.4565274     1.4565281     1.4565268

           -------------------------------------------------
          |               Frequency Printout                |
           -------------------------------------------------
 projected vibrational frequencies (cm⁻¹)
eigval :       -0.00    -0.00    -0.00     0.00     0.00     0.00
eigval :       71.80   291.44   611.27   639.20   813.71   860.71
eigval :      886.21   948.97   973.91   973.94  1008.89  1046.64
eigval :     1087.58  1127.22  1177.69  1180.34  1209.93  1247.53
eigval :     1273.46  1290.23  1294.53  1304.10  1385.67  1474.23
eigval :     1485.05  1487.19  1505.67  2943.21  2944.58  2977.50
eigval :     2991.83  3002.73  3005.66  3010.70  3020.66  3353.95
 reduced masses (amu)
   1: 10.47   2: 10.10   3:  9.45   4: 10.29   5:  9.85   6: 10.21   7:  5.38   8:  6.72
   9:  7.43  10:  8.97  11:  3.01  12:  4.61  13:  6.12  14:  9.02  15:  8.40  16:  9.10
  17:  3.99  18:  3.59  19:  8.62  20: 11.37  21:  4.12  22:  3.51  23:  2.91  24:  4.90
  25:  3.51  26:  3.37  27:  4.31  28:  3.92  29:  2.66  30:  1.85  31:  1.94  32:  1.90
  33:  1.99  34:  1.79  35:  1.77  36:  1.87  37:  1.86  38:  1.70  39:  1.75  40:  1.58
  41:  1.61  42:  1.84
 IR intensities (km·mol⁻¹)
   1:  0.62   2:  0.15   3:  0.50   4:  0.20   5:  0.41   6:  0.27   7:  0.20   8:  7.70
   9:  2.39  10:  1.85  11:  4.10  12:  1.77  13: 88.74  14: 17.04  15: 10.85  16: 40.06
  17: 11.16  18:  7.89  19:  9.41  20: 23.22  21:  0.29  22: 10.56  23:  2.84  24:  4.14
  25:  0.20  26:  0.20  27:  0.89  28: 31.92  29: 20.58  30:  0.32  31:  1.19  32:  1.79
  33:  0.19  34:  4.02  35:127.38  36:  1.99  37:144.38  38:100.82  39: 72.92  40: 92.08
  41: 65.42  42: 14.86
 Raman intensities (amu)
   1:  0.00   2:  0.00   3:  0.00   4:  0.00   5:  0.00   6:  0.00   7:  0.00   8:  0.00
   9:  0.00  10:  0.00  11:  0.00  12:  0.00  13:  0.00  14:  0.00  15:  0.00  16:  0.00
  17:  0.00  18:  0.00  19:  0.00  20:  0.00  21:  0.00  22:  0.00  23:  0.00  24:  0.00
  25:  0.00  26:  0.00  27:  0.00  28:  0.00  29:  0.00  30:  0.00  31:  0.00  32:  0.00
  33:  0.00  34:  0.00  35:  0.00  36:  0.00  37:  0.00  38:  0.00  39:  0.00  40:  0.00
  41:  0.00  42:  0.00
 output can be read by thermo (or use thermo option).
 writing <g98.out> molden fake output.
 recommended (thermochemical) frequency scaling factor: 1.0
           -------------------------------------------------
          |             Thermodynamic Functions             |
           -------------------------------------------------

Molecule has the following symmetry elements: (sigma) 
It seems to be the Cs point group
cs  symmetry found (for desy threshold:  0.10E+00) used in thermo

          ...................................................
          :                      SETUP                      :
          :.................................................:
          :  # frequencies                          36      :
          :  # imaginary freq.                       0      :
          :  linear?                             false      :
          :  only rotor calc.                    false      :
          :  symmetry                               cs      :
          :  rotational number                       1      :
          :  scaling factor                  1.0000000      :
          :  rotor cutoff                   50.0000000 cm⁻¹ :
          :  imag. cutoff                  -20.0000000 cm⁻¹ :
          :.................................................:

    mode    ω/cm⁻¹     T·S(HO)/kcal·mol⁻¹    T·S(FR)/kcal·mol⁻¹   T·S(vib)
   ------------------------------------------------------------------------
       1     71.80    -1.22346 ( 80.96%)    -0.94861 ( 19.04%)    -1.17112
       2    291.44    -0.43696 ( 99.91%)    -0.53414 (  0.09%)    -0.43704
   ------------------------------------------------------------------------

   temp. (K)  partition function   enthalpy   heat capacity  entropy
                                   cal/mol     cal/K/mol   cal/K/mol   J/K/mol
 298.15  VIB   5.68                 1312.342     11.662      7.677
         ROT  0.638E+05              888.752      2.981     24.967
         INT  0.362E+06             2201.094     14.643     32.643
         TR   0.580E+27             1481.254      4.968     38.685
         TOT                        3682.3479    19.6115    71.3281   298.4367

       T/K    H(0)-H(T)+PV         H(T)/Eh          T*S/Eh         G(T)/Eh
   ------------------------------------------------------------------------
    298.15    0.586819E-02    0.133236E+00    0.338903E-01    0.993456E-01
   ------------------------------------------------------------------------

         :::::::::::::::::::::::::::::::::::::::::::::::::::::
         ::                  THERMODYNAMIC                  ::
         :::::::::::::::::::::::::::::::::::::::::::::::::::::
         :: total free energy         -15.974975496528 Eh   ::
         ::.................................................::
         :: total energy              -16.074321054460 Eh   ::
         :: zero point energy           0.127367637821 Eh   ::
         :: G(RRHO) w/o ZPVE           -0.028022079890 Eh   ::
         :: G(RRHO) contrib.            0.099345557932 Eh   ::
         :::::::::::::::::::::::::::::::::::::::::::::::::::::

optimized geometry written to: xtbopt.xyz


           -------------------------------------------------
          | TOTAL ENERGY              -16.074321054460 Eh   |
          | TOTAL ENTHALPY            -15.941085221719 Eh   |
          | TOTAL FREE ENERGY         -15.974975496528 Eh   |
          | GRADIENT NORM               0.000636549874 Eh/α |
          | HOMO-LUMO GAP              10.953746543975 eV   |
           -------------------------------------------------

------------------------------------------------------------------------
 * finished run on 2021/11/15 at 09:36:20.306     
------------------------------------------------------------------------
 total:
 * wall-time:     0 d,  0 h,  0 min,  0.398 sec
 *  cpu-time:     0 d,  0 h,  0 min,  0.375 sec
 * ratio c/w:     0.942 speedup
 SCF:
 * wall-time:     0 d,  0 h,  0 min,  0.005 sec
 *  cpu-time:     0 d,  0 h,  0 min,  0.000 sec
 * ratio c/w:     0.000 speedup
 ANC optimizer:
 * wall-time:     0 d,  0 h,  0 min,  0.030 sec
 *  cpu-time:     0 d,  0 h,  0 min,  0.031 sec
 * ratio c/w:     1.054 speedup
 analytical hessian:
 * wall-time:     0 d,  0 h,  0 min,  0.329 sec
 *  cpu-time:     0 d,  0 h,  0 min,  0.312 sec
 * ratio c/w:     0.949 speedup

