 Entering Gaussian System
 *********************************************
 Gaussian 98:
 frequency output generated by the xtb code
 *********************************************
                         Standard orientation:
 --------------------------------------------------------------------
  Center     Atomic     Atomic              Coordinates (Angstroms)
  Number     Number      Type              X           Y           Z
 --------------------------------------------------------------------
    1          6             0        0.769915    1.028387   -0.073254
    2          6             0       -0.769351    1.028771   -0.073527
    3          6             0       -1.142518   -0.446426    0.195454
    4          6             0        1.142300   -0.447123    0.195241
    5          1             0        1.157695    1.347653   -1.040798
    6          1             0        1.181900    1.684714    0.690263
    7          1             0       -1.156602    1.347733   -1.041388
    8          1             0       -1.181321    1.685670    0.689503
    9          1             0       -1.281517   -0.606401    1.268663
   10          1             0       -2.047605   -0.759751   -0.322383
   11          1             0        1.281583   -0.607426    1.268365
   12          1             0        2.047044   -0.760836   -0.322962
   13          7             0       -0.000393   -1.249589   -0.219215
   14          1             0       -0.000521   -1.320729   -1.233185
 --------------------------------------------------------------------
     1 basis functions        1 primitive gaussians
     1 alpha electrons        1 beta electrons
 
 Harmonic frequencies (cm**-1), IR intensities (km*mol⁻¹),
 Raman scattering activities (A**4/amu), Raman depolarization ratios,
 reduced masses (AMU), force constants (mDyne/A) and normal coordinates:
                      1                      2                      3
                        a                      a                      a 
 Frequencies --    71.7961               291.4445               611.2675
 Red. masses --     5.3838                 6.7242                 7.4328
 Frc consts  --     0.0000                 0.0000                 0.0000
 IR Inten    --     0.2001                 7.6988                 2.3928
 Raman Activ --     0.0000                 0.0000                 0.0000
 Depolar     --     0.0000                 0.0000                 0.0000
 Atom AN      X      Y      Z        X      Y      Z        X      Y      Z
   1   6    -0.02   0.07   0.36    -0.01   0.06   0.09    -0.06   0.22  -0.00
   2   6    -0.02  -0.07  -0.36     0.01   0.06   0.09     0.06   0.22  -0.00
   3   6     0.05   0.06   0.23    -0.16   0.03  -0.29     0.34   0.02  -0.09
   4   6     0.05  -0.06  -0.23     0.16   0.03  -0.29    -0.34   0.02  -0.09
   5   1     0.13   0.21   0.22    -0.01   0.12   0.06     0.05   0.16   0.06
   6   1    -0.14  -0.10   0.28    -0.01  -0.05   0.09    -0.01  -0.06   0.11
   7   1     0.13  -0.21  -0.22     0.01   0.12   0.06    -0.05   0.16   0.06
   8   1    -0.14   0.10  -0.28     0.02  -0.05   0.09     0.01  -0.06   0.11
   9   1     0.14   0.11   0.10    -0.28  -0.01  -0.11     0.26   0.09   0.01
  10   1    -0.04  -0.03   0.19     0.05   0.04  -0.27    -0.01   0.02   0.16
  11   1     0.14  -0.11  -0.10     0.28  -0.01  -0.11    -0.26   0.09   0.01
  12   1    -0.04   0.03  -0.20    -0.05   0.04  -0.27     0.01   0.02   0.16
  13   7    -0.08  -0.00   0.00     0.00  -0.14   0.46     0.00  -0.45  -0.01
  14   1    -0.09  -0.00   0.00    -0.00  -0.33   0.15     0.00  -0.40   0.02
                      4                      5                      6
                        a                      a                      a 
 Frequencies --   639.2011               813.7061               860.7141
 Red. masses --     8.9710                 3.0136                 4.6093
 Frc consts  --     0.0000                 0.0000                 0.0000
 IR Inten    --     1.8490                 4.1016                 1.7698
 Raman Activ --     0.0000                 0.0000                 0.0000
 Depolar     --     0.0000                 0.0000                 0.0000
 Atom AN      X      Y      Z        X      Y      Z        X      Y      Z
   1   6     0.33   0.32  -0.08     0.07  -0.10  -0.21     0.15   0.17   0.16
   2   6     0.33  -0.32   0.08    -0.07  -0.10  -0.21     0.15  -0.17  -0.16
   3   6    -0.21  -0.26   0.12    -0.12  -0.03   0.01    -0.11  -0.16  -0.18
   4   6    -0.22   0.26  -0.12     0.12  -0.03   0.01    -0.11   0.16   0.18
   5   1     0.10   0.21   0.02     0.26   0.29   0.15     0.02  -0.22  -0.06
   6   1     0.05   0.02   0.06    -0.27  -0.19   0.25     0.05   0.25  -0.15
   7   1     0.10  -0.21  -0.02    -0.26   0.29   0.15     0.02   0.22   0.06
   8   1     0.05  -0.02  -0.06     0.27  -0.19   0.25     0.05  -0.25   0.15
   9   1    -0.19  -0.16   0.00     0.04   0.11   0.03     0.26   0.15   0.03
  10   1    -0.03   0.05  -0.10    -0.03  -0.15   0.09    -0.17  -0.13   0.25
  11   1    -0.19   0.16  -0.00    -0.04   0.11   0.03     0.26  -0.15  -0.03
  12   1    -0.03  -0.05   0.10     0.03  -0.15   0.09    -0.17   0.13  -0.25
  13   7    -0.15  -0.00  -0.00     0.00   0.16   0.09    -0.18  -0.00   0.00
  14   1    -0.09  -0.00   0.00    -0.00   0.19   0.01     0.04   0.00  -0.00
                      7                      8                      9
                        a                      a                      a 
 Frequencies --   886.2062               948.9667               973.9135
 Red. masses --     6.1166                 9.0159                 8.4017
 Frc consts  --     0.0000                 0.0000                 0.0000
 IR Inten    --    88.7361                17.0397                10.8546
 Raman Activ --     0.0000                 0.0000                 0.0000
 Depolar     --     0.0000                 0.0000                 0.0000
 Atom AN      X      Y      Z        X      Y      Z        X      Y      Z
   1   6     0.10  -0.18   0.07    -0.30  -0.38   0.02     0.02   0.33  -0.03
   2   6    -0.10  -0.18   0.07     0.30  -0.38   0.02    -0.09  -0.32   0.08
   3   6    -0.12   0.03  -0.10     0.09   0.35  -0.02    -0.02   0.35  -0.10
   4   6     0.12   0.03  -0.10    -0.09   0.35  -0.02     0.40  -0.22   0.08
   5   1    -0.06  -0.04  -0.01    -0.05  -0.05   0.04    -0.14   0.16  -0.04
   6   1     0.05  -0.03  -0.01    -0.19  -0.08   0.04    -0.11   0.21  -0.05
   7   1     0.06  -0.04  -0.01     0.05  -0.05   0.04    -0.05  -0.09   0.02
   8   1    -0.05  -0.03  -0.01     0.19  -0.08   0.04    -0.17  -0.19   0.03
   9   1     0.18   0.03   0.01    -0.00   0.06  -0.01     0.05   0.09  -0.02
  10   1    -0.09  -0.09   0.15    -0.03   0.29  -0.02    -0.11   0.26   0.05
  11   1    -0.18   0.03   0.01     0.00   0.06  -0.01    -0.01   0.01   0.04
  12   1     0.09  -0.09   0.14     0.03   0.29  -0.02     0.12  -0.19   0.12
  13   7    -0.00   0.52  -0.05     0.00  -0.06  -0.03    -0.18  -0.21  -0.06
  14   1    -0.00  -0.65   0.06     0.00  -0.00  -0.01    -0.01   0.02  -0.03
                     10                     11                     12
                        a                      a                      a 
 Frequencies --   973.9394              1008.8872              1046.6366
 Red. masses --     9.1011                 3.9930                 3.5890
 Frc consts  --     0.0000                 0.0000                 0.0000
 IR Inten    --    40.0636                11.1628                 7.8923
 Raman Activ --     0.0000                 0.0000                 0.0000
 Depolar     --     0.0000                 0.0000                 0.0000
 Atom AN      X      Y      Z        X      Y      Z        X      Y      Z
   1   6     0.13  -0.16   0.07    -0.07   0.15  -0.08    -0.00  -0.07  -0.24
   2   6    -0.09   0.18   0.02     0.07   0.15  -0.08    -0.00   0.07   0.24
   3   6    -0.50  -0.02   0.03    -0.15  -0.09   0.20    -0.07  -0.03  -0.22
   4   6     0.30   0.28  -0.07     0.15  -0.09   0.20    -0.07   0.03   0.22
   5   1    -0.04  -0.00  -0.00     0.24  -0.08   0.04     0.04   0.21   0.03
   6   1     0.13  -0.08   0.00    -0.31   0.20  -0.00    -0.03  -0.20   0.11
   7   1     0.14   0.13  -0.04    -0.24  -0.08   0.04     0.04  -0.21  -0.03
   8   1     0.01   0.13  -0.04     0.31   0.20  -0.00    -0.03   0.20  -0.11
   9   1     0.04   0.08   0.04    -0.09  -0.23   0.01     0.30  -0.18  -0.04
  10   1    -0.22  -0.05   0.18    -0.06   0.18  -0.04    -0.20   0.15   0.16
  11   1    -0.07   0.12   0.01     0.09  -0.23   0.01     0.30   0.18   0.04
  12   1     0.21   0.18   0.14     0.06   0.18  -0.04    -0.20  -0.16  -0.16
  13   7     0.09  -0.41  -0.11    -0.00  -0.05  -0.23    -0.02  -0.00   0.00
  14   1     0.00   0.05  -0.05     0.00  -0.37  -0.02     0.38   0.00  -0.00
                     13                     14                     15
                        a                      a                      a 
 Frequencies --  1087.5785              1127.2207              1177.6868
 Red. masses --     8.6203                11.3665                 4.1218
 Frc consts  --     0.0000                 0.0000                 0.0000
 IR Inten    --     9.4113                23.2156                 0.2941
 Raman Activ --     0.0000                 0.0000                 0.0000
 Depolar     --     0.0000                 0.0000                 0.0000
 Atom AN      X      Y      Z        X      Y      Z        X      Y      Z
   1   6    -0.50   0.12   0.01    -0.00  -0.18  -0.02    -0.04  -0.09   0.29
   2   6     0.50   0.12   0.01    -0.00   0.18   0.02    -0.04   0.09  -0.29
   3   6    -0.13  -0.23  -0.03     0.35  -0.29  -0.09     0.01  -0.12   0.16
   4   6     0.13  -0.23  -0.03     0.35   0.29   0.09     0.01   0.12  -0.16
   5   1    -0.28   0.12  -0.03     0.04  -0.01   0.02    -0.10  -0.16  -0.01
   6   1    -0.13   0.07  -0.03    -0.11   0.00   0.01     0.04   0.10  -0.06
   7   1     0.28   0.12  -0.03     0.04   0.01  -0.02    -0.10   0.16   0.01
   8   1     0.13   0.07  -0.03    -0.11  -0.00  -0.01     0.04  -0.10   0.07
   9   1     0.03   0.09   0.02     0.04  -0.12  -0.03     0.00  -0.27   0.00
  10   1    -0.05  -0.14   0.07     0.08  -0.00  -0.06    -0.13   0.46  -0.02
  11   1    -0.03   0.09   0.02     0.04   0.12   0.03     0.00   0.27  -0.00
  12   1     0.05  -0.14   0.07     0.08   0.00   0.06    -0.13  -0.46   0.02
  13   7     0.00   0.11   0.03    -0.61   0.00   0.00     0.11   0.00   0.00
  14   1     0.00   0.03   0.01    -0.21   0.00   0.00     0.12  -0.00   0.00
                     16                     17                     18
                        a                      a                      a 
 Frequencies --  1180.3361              1209.9334              1247.5263
 Red. masses --     3.5053                 2.9102                 4.9021
 Frc consts  --     0.0000                 0.0000                 0.0000
 IR Inten    --    10.5641                 2.8386                 4.1378
 Raman Activ --     0.0000                 0.0000                 0.0000
 Depolar     --     0.0000                 0.0000                 0.0000
 Atom AN      X      Y      Z        X      Y      Z        X      Y      Z
   1   6    -0.09   0.06  -0.19    -0.03   0.11   0.20     0.13  -0.09  -0.04
   2   6     0.10   0.06  -0.18    -0.03  -0.11  -0.20    -0.13  -0.09  -0.04
   3   6    -0.04  -0.12   0.20     0.07   0.03  -0.07     0.05   0.11   0.26
   4   6     0.04  -0.12   0.20     0.07  -0.03   0.07    -0.05   0.11   0.26
   5   1    -0.06   0.15  -0.02    -0.35   0.15  -0.05    -0.27   0.27  -0.03
   6   1     0.32  -0.36   0.08     0.46  -0.20  -0.00    -0.08   0.05  -0.01
   7   1     0.06   0.15  -0.02    -0.35  -0.15   0.05     0.27   0.27  -0.03
   8   1    -0.33  -0.36   0.08     0.46   0.20   0.00     0.08   0.05  -0.01
   9   1    -0.09  -0.09   0.03     0.05  -0.07  -0.02    -0.20   0.11   0.04
  10   1    -0.08   0.30  -0.02     0.06  -0.11  -0.02     0.20  -0.18  -0.13
  11   1     0.09  -0.09   0.03     0.05   0.07   0.02     0.20   0.11   0.04
  12   1     0.09   0.30  -0.02     0.06   0.11   0.02    -0.20  -0.19  -0.13
  13   7     0.00   0.13  -0.07    -0.19   0.00  -0.00     0.00  -0.12  -0.32
  14   1    -0.00  -0.11   0.00     0.05  -0.00  -0.00    -0.00  -0.24  -0.06
                     19                     20                     21
                        a                      a                      a 
 Frequencies --  1273.4574              1290.2320              1294.5342
 Red. masses --     3.5069                 3.3721                 4.3075
 Frc consts  --     0.0000                 0.0000                 0.0000
 IR Inten    --     0.1952                 0.2020                 0.8870
 Raman Activ --     0.0000                 0.0000                 0.0000
 Depolar     --     0.0000                 0.0000                 0.0000
 Atom AN      X      Y      Z        X      Y      Z        X      Y      Z
   1   6     0.10  -0.06   0.08    -0.21   0.08   0.05     0.24  -0.27   0.05
   2   6     0.10   0.06  -0.08     0.21   0.08   0.05     0.24   0.27  -0.05
   3   6    -0.09   0.23   0.13    -0.09   0.08   0.05    -0.07  -0.07  -0.05
   4   6    -0.09  -0.23  -0.13     0.09   0.08   0.05    -0.07   0.07   0.05
   5   1    -0.01  -0.01   0.00     0.27  -0.28   0.05    -0.41   0.28  -0.06
   6   1    -0.14   0.17  -0.05     0.16  -0.16   0.04    -0.22   0.15  -0.02
   7   1    -0.01   0.01  -0.00    -0.27  -0.28   0.05    -0.41  -0.28   0.06
   8   1    -0.14  -0.17   0.05    -0.16  -0.16   0.04    -0.22  -0.15   0.02
   9   1     0.10  -0.41  -0.02    -0.17   0.30   0.03    -0.05   0.13   0.01
  10   1     0.15  -0.30  -0.05     0.08  -0.22  -0.02    -0.06  -0.01   0.05
  11   1     0.10   0.41   0.02     0.17   0.30   0.03    -0.05  -0.13  -0.01
  12   1     0.15   0.30   0.05    -0.08  -0.22  -0.02    -0.06   0.01  -0.05
  13   7    -0.16  -0.00  -0.00    -0.00  -0.07  -0.23     0.11   0.00  -0.00
  14   1     0.30  -0.00  -0.00     0.00  -0.14  -0.05    -0.08   0.00  -0.00
                     22                     23                     24
                        a                      a                      a 
 Frequencies --  1304.1023              1385.6747              1474.2314
 Red. masses --     3.9219                 2.6560                 1.8544
 Frc consts  --     0.0000                 0.0000                 0.0000
 IR Inten    --    31.9229                20.5811                 0.3165
 Raman Activ --     0.0000                 0.0000                 0.0000
 Depolar     --     0.0000                 0.0000                 0.0000
 Atom AN      X      Y      Z        X      Y      Z        X      Y      Z
   1   6    -0.15   0.04  -0.07     0.00   0.01   0.01    -0.10  -0.11   0.02
   2   6     0.15   0.04  -0.07     0.00  -0.01  -0.01    -0.10   0.11  -0.02
   3   6    -0.12   0.28   0.05    -0.06   0.11  -0.15     0.11   0.05  -0.05
   4   6     0.12   0.28   0.05    -0.06  -0.11   0.15     0.11  -0.05   0.05
   5   1    -0.02  -0.01  -0.01     0.01   0.01   0.01     0.19   0.25   0.16
   6   1     0.07  -0.13   0.04     0.01  -0.01   0.00     0.17   0.18  -0.25
   7   1     0.02  -0.01  -0.01     0.00  -0.01  -0.01     0.19  -0.25  -0.16
   8   1    -0.07  -0.13   0.04     0.01   0.01  -0.00     0.17  -0.18   0.25
   9   1     0.16  -0.47  -0.04     0.15  -0.29  -0.06    -0.31  -0.09  -0.05
  10   1     0.11  -0.30  -0.01    -0.06  -0.02   0.06    -0.14  -0.07   0.29
  11   1    -0.16  -0.47  -0.04     0.15   0.29   0.06    -0.31   0.09   0.05
  12   1    -0.11  -0.30  -0.01    -0.06   0.02  -0.06    -0.14   0.07  -0.29
  13   7     0.00  -0.11   0.05     0.25  -0.00  -0.00     0.01  -0.00  -0.00
  14   1    -0.00   0.00   0.01    -0.79   0.00   0.00     0.05  -0.00  -0.00
                     25                     26                     27
                        a                      a                      a 
 Frequencies --  1485.0541              1487.1905              1505.6664
 Red. masses --     1.9387                 1.8979                 1.9871
 Frc consts  --     0.0000                 0.0000                 0.0000
 IR Inten    --     1.1851                 1.7877                 0.1854
 Raman Activ --     0.0000                 0.0000                 0.0000
 Depolar     --     0.0000                 0.0000                 0.0000
 Atom AN      X      Y      Z        X      Y      Z        X      Y      Z
   1   6    -0.06  -0.06   0.02    -0.08  -0.11   0.01    -0.13  -0.14   0.03
   2   6     0.06  -0.06   0.02    -0.08   0.11  -0.01     0.13  -0.14   0.03
   3   6    -0.16  -0.05   0.08    -0.13  -0.05   0.05     0.07   0.03  -0.03
   4   6     0.16  -0.05   0.08    -0.13   0.05  -0.05    -0.07   0.03  -0.03
   5   1     0.12   0.11   0.09     0.15   0.25   0.14     0.24   0.31   0.20
   6   1     0.11   0.08  -0.13     0.14   0.17  -0.23     0.23   0.21  -0.31
   7   1    -0.12   0.11   0.09     0.15  -0.25  -0.14    -0.24   0.31   0.20
   8   1    -0.11   0.08  -0.13     0.14  -0.17   0.23    -0.23   0.21  -0.31
   9   1     0.41   0.13   0.08     0.32   0.13   0.06    -0.17  -0.08  -0.03
  10   1     0.18   0.09  -0.39     0.14   0.09  -0.31    -0.07  -0.06   0.17
  11   1    -0.41   0.14   0.08     0.32  -0.13  -0.06     0.17  -0.08  -0.03
  12   1    -0.18   0.09  -0.39     0.14  -0.09   0.31     0.07  -0.06   0.17
  13   7    -0.00  -0.01   0.01     0.00  -0.00   0.00    -0.00   0.01  -0.00
  14   1     0.00   0.00   0.00    -0.07   0.00   0.00    -0.00  -0.01  -0.00
                     28                     29                     30
                        a                      a                      a 
 Frequencies --  2943.2118              2944.5776              2977.4996
 Red. masses --     1.7905                 1.7729                 1.8727
 Frc consts  --     0.0000                 0.0000                 0.0000
 IR Inten    --     4.0216               127.3794                 1.9921
 Raman Activ --     0.0000                 0.0000                 0.0000
 Depolar     --     0.0000                 0.0000                 0.0000
 Atom AN      X      Y      Z        X      Y      Z        X      Y      Z
   1   6     0.00  -0.01  -0.02     0.00  -0.01  -0.02     0.04   0.01  -0.19
   2   6     0.00   0.01   0.02    -0.00  -0.01  -0.02     0.04  -0.02   0.19
   3   6    -0.01   0.02  -0.18     0.00  -0.02   0.19    -0.02  -0.01   0.02
   4   6    -0.01  -0.02   0.19    -0.00  -0.02   0.18    -0.02   0.01  -0.02
   5   1    -0.02  -0.02   0.06    -0.02  -0.02   0.06    -0.22  -0.18   0.57
   6   1     0.02   0.03   0.04     0.02   0.03   0.03     0.09   0.13   0.12
   7   1    -0.02   0.02  -0.06     0.02  -0.02   0.06    -0.23   0.18  -0.57
   8   1     0.02  -0.03  -0.03    -0.02   0.03   0.03     0.09  -0.13  -0.12
   9   1    -0.08  -0.09   0.65     0.08   0.09  -0.66     0.01   0.01  -0.10
  10   1     0.09   0.03   0.02    -0.08  -0.03  -0.02     0.06   0.02   0.04
  11   1    -0.08   0.09  -0.66    -0.08   0.09  -0.66     0.01  -0.01   0.09
  12   1     0.09  -0.03  -0.02     0.08  -0.03  -0.02     0.06  -0.02  -0.04
  13   7     0.01   0.00   0.00    -0.00   0.01   0.01    -0.00   0.00  -0.00
  14   1     0.01  -0.00   0.00    -0.00  -0.00   0.02    -0.00  -0.00   0.00
                     31                     32                     33
                        a                      a                      a 
 Frequencies --  2991.8319              3002.7267              3005.6609
 Red. masses --     1.8562                 1.6960                 1.7451
 Frc consts  --     0.0000                 0.0000                 0.0000
 IR Inten    --   144.3775               100.8201                72.9154
 Raman Activ --     0.0000                 0.0000                 0.0000
 Depolar     --     0.0000                 0.0000                 0.0000
 Atom AN      X      Y      Z        X      Y      Z        X      Y      Z
   1   6     0.04   0.02  -0.18    -0.02  -0.03  -0.04    -0.00   0.01   0.08
   2   6    -0.04   0.02  -0.18    -0.02   0.03   0.04     0.00   0.01   0.08
   3   6     0.05   0.02  -0.00     0.14   0.05   0.07     0.14   0.05   0.07
   4   6    -0.05   0.02  -0.00     0.14  -0.05  -0.07    -0.14   0.05   0.07
   5   1    -0.22  -0.18   0.55    -0.01  -0.01   0.02     0.06   0.05  -0.15
   6   1     0.07   0.10   0.09     0.07   0.11   0.14    -0.06  -0.10  -0.11
   7   1     0.22  -0.18   0.55    -0.01   0.01  -0.02    -0.06   0.05  -0.15
   8   1    -0.07   0.10   0.09     0.07  -0.11  -0.14     0.06  -0.10  -0.11
   9   1    -0.00  -0.01   0.10     0.01  -0.00   0.09     0.01  -0.00   0.06
  10   1    -0.17  -0.06  -0.10    -0.53  -0.18  -0.32    -0.53  -0.18  -0.31
  11   1     0.00  -0.01   0.10     0.01   0.00  -0.09    -0.01  -0.00   0.06
  12   1     0.17  -0.06  -0.10    -0.53   0.18   0.32     0.52  -0.18  -0.31
  13   7    -0.00  -0.00   0.00     0.01  -0.00   0.00     0.00   0.00  -0.00
  14   1    -0.00   0.00  -0.00     0.00  -0.00  -0.00     0.00   0.00   0.01
                     34                     35                     36
                        a                      a                      a 
 Frequencies --  3010.7044              3020.6644              3353.9496
 Red. masses --     1.5824                 1.6090                 1.8394
 Frc consts  --     0.0000                 0.0000                 0.0000
 IR Inten    --    92.0761                65.4158                14.8633
 Raman Activ --     0.0000                 0.0000                 0.0000
 Depolar     --     0.0000                 0.0000                 0.0000
 Atom AN      X      Y      Z        X      Y      Z        X      Y      Z
   1   6    -0.08  -0.11  -0.06    -0.08  -0.12  -0.08     0.00   0.00  -0.00
   2   6    -0.08   0.11   0.06     0.08  -0.12  -0.08    -0.00   0.00  -0.00
   3   6    -0.04  -0.01  -0.01     0.03   0.01   0.00    -0.00   0.00  -0.01
   4   6    -0.04   0.01   0.01    -0.03   0.01   0.00     0.00   0.00  -0.01
   5   1     0.07   0.05  -0.22     0.06   0.04  -0.20    -0.00  -0.00   0.00
   6   1     0.22   0.37   0.45     0.23   0.38   0.47     0.00   0.00   0.00
   7   1     0.07  -0.05   0.22    -0.06   0.04  -0.20     0.00  -0.00   0.00
   8   1     0.22  -0.37  -0.45    -0.23   0.38   0.47    -0.00   0.00   0.00
   9   1     0.00   0.01  -0.05    -0.00  -0.00   0.04     0.00  -0.00   0.01
  10   1     0.14   0.05   0.08    -0.09  -0.03  -0.05     0.01   0.00   0.00
  11   1     0.00  -0.01   0.05     0.00  -0.00   0.04    -0.00  -0.00   0.01
  12   1     0.14  -0.05  -0.09     0.09  -0.03  -0.05    -0.01   0.00   0.00
  13   7    -0.00   0.00  -0.00     0.00  -0.00   0.00    -0.00  -0.03  -0.25
  14   1    -0.00  -0.00   0.00    -0.00   0.00  -0.00     0.00   0.09   0.96
