      -----------------------------------------------------------      
     |                   =====================                   |     
     |                           x T B                           |     
     |                   =====================                   |     
     |                         S. Grimme                         |     
     |          Mulliken Center for Theoretical Chemistry        |     
     |                    University of Bonn                     |     
      -----------------------------------------------------------      

   * xtb version 6.4.1 (afa7bdf) compiled by 'ehlert@majestix' on 2021-06-10

   xtb is free software: you can redistribute it and/or modify it under
   the terms of the GNU Lesser General Public License as published by
   the Free Software Foundation, either version 3 of the License, or
   (at your option) any later version.
   
   xtb is distributed in the hope that it will be useful,
   but WITHOUT ANY WARRANTY; without even the implied warranty of
   MERCHANTABILITY or FITNESS FOR A PARTICULAR PURPOSE.  See the
   GNU Lesser General Public License for more details.
   
   Cite this work as:
   * C. Bannwarth, E. Caldeweyher, S. Ehlert, A. Hansen, P. Pracht,
     J. Seibert, S. Spicher, S. Grimme, WIREs Comput. Mol. Sci., 2020, 11,
     e01493. DOI: 10.1002/wcms.1493
   
   for GFN2-xTB:
   * C. Bannwarth, S. Ehlert and S. Grimme., J. Chem. Theory Comput., 2019,
     15, 1652-1671. DOI: 10.1021/acs.jctc.8b01176
   for GFN1-xTB:
   * S. Grimme, C. Bannwarth, P. Shushkov, J. Chem. Theory Comput., 2017,
     13, 1989-2009. DOI: 10.1021/acs.jctc.7b00118
   for GFN0-xTB:
   * P. Pracht, E. Caldeweyher, S. Ehlert, S. Grimme, ChemRxiv, 2019, preprint.
     DOI: 10.26434/chemrxiv.8326202.v1
   for GFN-FF:
   * S. Spicher and S. Grimme, Angew. Chem. Int. Ed., 2020, 59, 15665-15673.
     DOI: 10.1002/anie.202004239
   
   for DFT-D4:
   * E. Caldeweyher, C. Bannwarth and S. Grimme, J. Chem. Phys., 2017,
     147, 034112. DOI: 10.1063/1.4993215
   * E. Caldeweyher, S. Ehlert, A. Hansen, H. Neugebauer, S. Spicher,
     C. Bannwarth and S. Grimme, J. Chem. Phys., 2019, 150, 154122.
     DOI: 10.1063/1.5090222
   * E. Caldeweyher, J.-M. Mewes, S. Ehlert and S. Grimme, Phys. Chem. Chem. Phys.
     2020, 22, 8499-8512. DOI: 10.1039/D0CP00502A
   
   for sTDA-xTB:
   * S. Grimme and C. Bannwarth, J. Chem. Phys., 2016, 145, 054103.
     DOI: 10.1063/1.4959605
   
   in the mass-spec context:
   * V. Asgeirsson, C. Bauer and S. Grimme, Chem. Sci., 2017, 8, 4879.
     DOI: 10.1039/c7sc00601b
   * J. Koopman and S. Grimme, ACS Omega 2019, 4, 12, 15120-15133.
     DOI: 10.1021/acsomega.9b02011
   
   for metadynamics refer to:
   * S. Grimme, J. Chem. Theory Comput., 2019, 155, 2847-2862
     DOI: 10.1021/acs.jctc.9b00143
   
   for SPH calculations refer to:
   * S. Spicher and S. Grimme, J. Chem. Theory Comput., 2021, 17, 1701-1714
     DOI: 10.1021/acs.jctc.0c01306
   
   with help from (in alphabetical order)
   P. Atkinson, C. Bannwarth, F. Bohle, G. Brandenburg, E. Caldeweyher
   M. Checinski, S. Dohm, S. Ehlert, S. Ehrlich, I. Gerasimov, J. Koopman
   C. Lavigne, S. Lehtola, F. März, M. Müller, F. Musil, H. Neugebauer
   J. Pisarek, C. Plett, P. Pracht, J. Seibert, P. Shushkov, S. Spicher
   M. Stahn, M. Steiner, T. Strunk, J. Stückrath, T. Rose, and J. Unsleber
   
 * started run on 2021/11/15 at 09:23:09.076     

           -------------------------------------------------
          |                Calculation Setup                |
           -------------------------------------------------

          program call               : xtb 21_2-methoxyaniline.xyz --gfn2 --chrg 0 --uhf 0 --alpb water -P 1
          coordinate file            : 21_2-methoxyaniline.xyz
          omp threads                :                     1
          number of atoms            :                    18
          number of electrons        :                    48
          charge                     :                     0
          spin                       :                   0.0
          first test random number   :      0.93418393908331

   ID    Z sym.   atoms
    1    6 C      1-6, 15
    2    1 H      7, 8, 10-13, 16-18
    3    7 N      9
    4    8 O      14

           -------------------------------------------------
          |                 G F N 2 - x T B                 |
           -------------------------------------------------

        Reference                      10.1021/acs.jctc.8b01176
      * Hamiltonian:
        H0-scaling (s, p, d)           1.850000    2.230000    2.230000
        zeta-weighting                 0.500000
      * Dispersion:
        s8                             2.700000
        a1                             0.520000
        a2                             5.000000
        s9                             5.000000
      * Repulsion:
        kExp                           1.500000    1.000000
        rExp                           1.000000
      * Coulomb:
        alpha                          2.000000
        third order                    shell-resolved
        anisotropic                    true
        a3                             3.000000
        a5                             4.000000
        cn-shift                       1.200000
        cn-exp                         4.000000
        max-rad                        5.000000

      * Solvation model:               ALPB
        Solvent                        water
        Parameter file                 internal GFN2-xTB/ALPB
        Dielectric constant                8.0200E+01
        Reference state                gsolv [1 M gas/solution]
        Free energy shift                  1.0808E-03 Eh       6.7819E-01 kcal/mol
        Temperature                        2.9815E+02 K
        Density                            1.0000E+00 kg/L
        Solvent mass                       1.8000E+01 g/mol
        Interaction kernel             P16
        Born radius scaling (c1)           1.4744E+00
        Born radii integrator          GBOBC
        Born offset                        0.0000E+00 a0       0.0000E+00 AA
        H-bond correction              true
        Ion screening                  false
        Surface tension                    1.0000E-05 Eh       1.5569E+01 dyn/cm
        Grid points                               230 per atom
q/qsh data taken from xtbrestart
CAMM data taken from xtbrestart

          ...................................................
          :                      SETUP                      :
          :.................................................:
          :  # basis functions                  45          :
          :  # atomic orbitals                  45          :
          :  # shells                           27          :
          :  # electrons                        48          :
          :  max. iterations                   250          :
          :  Hamiltonian                  GFN2-xTB          :
          :  restarted?                       true          :
          :  GBSA solvation                   true          :
          :  PC potential                    false          :
          :  electronic temp.          300.0000000     K    :
          :  accuracy                    1.0000000          :
          :  -> integral cutoff          0.2500000E+02      :
          :  -> integral neglect         0.1000000E-07      :
          :  -> SCF convergence          0.1000000E-05 Eh   :
          :  -> wf. convergence          0.1000000E-03 e    :
          :  Broyden damping             0.4000000          :
          ...................................................

 iter      E             dE          RMSdq      gap      omega  full diag
   1    -26.9357738 -0.269358E+02  0.760E-05    3.78       0.0  T
   2    -26.9357738 -0.104450E-10  0.479E-05    3.78     492.2  T
   3    -26.9357738 -0.193268E-11  0.282E-05    3.78     835.8  T

   *** convergence criteria satisfied after 3 iterations ***

         #    Occupation            Energy/Eh            Energy/eV
      -------------------------------------------------------------
         1        2.0000           -0.7115833             -19.3632
       ...           ...                  ...                  ...
        18        2.0000           -0.4589005             -12.4873
        19        2.0000           -0.4442813             -12.0895
        20        2.0000           -0.4321756             -11.7601
        21        2.0000           -0.4260965             -11.5947
        22        2.0000           -0.4199558             -11.4276
        23        2.0000           -0.3828400             -10.4176
        24        2.0000           -0.3499737              -9.5233 (HOMO)
        25                         -0.2112009              -5.7471 (LUMO)
        26                         -0.2045682              -5.5666
        27                         -0.0838000              -2.2803
        28                          0.0151303               0.4117
        29                          0.0602213               1.6387
       ...                                ...                  ...
        45                          0.6530806              17.7712
      -------------------------------------------------------------
                  HL-Gap            0.1387729 Eh            3.7762 eV
             Fermi-level           -0.2805873 Eh           -7.6352 eV

 SCC (total)                   0 d,  0 h,  0 min,  0.008 sec
 SCC setup                      ...        0 min,  0.000 sec (  5.700%)
 Dispersion                     ...        0 min,  0.000 sec (  1.659%)
 classical contributions        ...        0 min,  0.000 sec (  0.326%)
 integral evaluation            ...        0 min,  0.002 sec ( 22.416%)
 iterations                     ...        0 min,  0.002 sec ( 26.159%)
 molecular gradient             ...        0 min,  0.003 sec ( 40.587%)
 printout                       ...        0 min,  0.000 sec (  2.638%)

         :::::::::::::::::::::::::::::::::::::::::::::::::::::
         ::                     SUMMARY                     ::
         :::::::::::::::::::::::::::::::::::::::::::::::::::::
         :: total energy             -26.553790304804 Eh    ::
         :: total w/o Gsasa/hb       -26.549346840516 Eh    ::
         :: gradient norm              0.021795075808 Eh/a0 ::
         :: HOMO-LUMO gap              3.776201650872 eV    ::
         ::.................................................::
         :: SCC energy               -26.935773843251 Eh    ::
         :: -> isotropic ES            0.029882527610 Eh    ::
         :: -> anisotropic ES          0.005481099378 Eh    ::
         :: -> anisotropic XC          0.011886152101 Eh    ::
         :: -> dispersion             -0.013771849350 Eh    ::
         :: -> Gsolv                  -0.008286825660 Eh    ::
         ::    -> Gelec               -0.003843361372 Eh    ::
         ::    -> Gsasa               -0.002227349678 Eh    ::
         ::    -> Ghb                 -0.003296874308 Eh    ::
         ::    -> Gshift               0.001080759698 Eh    ::
         :: repulsion energy           0.381939335119 Eh    ::
         :: add. restraining           0.000000000000 Eh    ::
         :: total charge               0.000000000000 e     ::
         :::::::::::::::::::::::::::::::::::::::::::::::::::::

           -------------------------------------------------
          |                Property Printout                |
           -------------------------------------------------

    * Orbital Energies and Occupations

         #    Occupation            Energy/Eh            Energy/eV
      -------------------------------------------------------------
         1        2.0000           -0.7115833             -19.3632
       ...           ...                  ...                  ...
        12        2.0000           -0.5199746             -14.1492
        13        2.0000           -0.5028628             -13.6836
        14        2.0000           -0.4916784             -13.3793
        15        2.0000           -0.4847594             -13.1910
        16        2.0000           -0.4784574             -13.0195
        17        2.0000           -0.4659222             -12.6784
        18        2.0000           -0.4589005             -12.4873
        19        2.0000           -0.4442813             -12.0895
        20        2.0000           -0.4321756             -11.7601
        21        2.0000           -0.4260965             -11.5947
        22        2.0000           -0.4199558             -11.4276
        23        2.0000           -0.3828400             -10.4176
        24        2.0000           -0.3499737              -9.5233 (HOMO)
        25                         -0.2112009              -5.7471 (LUMO)
        26                         -0.2045682              -5.5666
        27                         -0.0838000              -2.2803
        28                          0.0151303               0.4117
        29                          0.0602213               1.6387
        30                          0.1112668               3.0277
        31                          0.1183139               3.2195
        32                          0.1424880               3.8773
        33                          0.1674667               4.5570
        34                          0.1690284               4.5995
        35                          0.1892953               5.1510
       ...                                ...                  ...
        45                          0.6530806              17.7712
      -------------------------------------------------------------
                  HL-Gap            0.1387729 Eh            3.7762 eV
             Fermi-level           -0.2805873 Eh           -7.6352 eV

     #   Z          covCN         q      C6AA      α(0)
     1   6 C        2.913    -0.055    29.362     8.885
     2   6 C        2.910    -0.076    29.902     8.967
     3   6 C        2.862     0.110    25.570     8.288
     4   6 C        2.892     0.055    26.769     8.483
     5   6 C        2.917    -0.071    29.767     8.947
     6   6 C        2.911    -0.050    29.241     8.867
     7   1 H        0.925     0.031     2.572     2.508
     8   1 H        0.925     0.035     2.513     2.479
     9   7 N        2.637    -0.324    28.329     7.905
    10   1 H        0.860     0.195     1.132     1.667
    11   1 H        0.860     0.196     1.128     1.663
    12   1 H        0.925     0.036     2.499     2.472
    13   1 H        0.925     0.029     2.601     2.522
    14   8 O        1.703    -0.311    19.184     5.914
    15   6 C        3.638     0.024    20.528     6.517
    16   1 H        0.924     0.076     2.020     2.223
    17   1 H        0.924     0.049     2.330     2.387
    18   1 H        0.924     0.050     2.324     2.384

 Mol. C6AA /au·bohr⁶  :       3492.088666
 Mol. C8AA /au·bohr⁸  :      81627.319177
 Mol. α(0) /au        :         93.078037


Wiberg/Mayer (AO) data.
largest (>0.10) Wiberg bond orders for each atom

 ---------------------------------------------------------------------------
     #   Z sym  total        # sym  WBO       # sym  WBO       # sym  WBO
 ---------------------------------------------------------------------------
     1   6 C    3.989 --     6 C    1.452     2 C    1.402    13 H    0.972
     2   6 C    3.986 --     3 C    1.417     1 C    1.402    12 H    0.966
     3   6 C    3.928 --     2 C    1.417     4 C    1.272    14 O    1.035
     4   6 C    3.975 --     5 C    1.386     3 C    1.272     9 N    1.147
     5   6 C    3.985 --     6 C    1.423     4 C    1.386     8 H    0.968
     6   6 C    3.991 --     1 C    1.452     5 C    1.423     7 H    0.971
     7   1 H    0.999 --     6 C    0.971
     8   1 H    0.998 --     5 C    0.968
     9   7 N    3.208 --     4 C    1.147    10 H    0.942    11 H    0.940
    10   1 H    0.962 --     9 N    0.942
    11   1 H    0.961 --     9 N    0.940
    12   1 H    0.998 --     2 C    0.966
    13   1 H    0.999 --     1 C    0.972
    14   8 O    2.189 --     3 C    1.035    15 C    0.974
    15   6 C    3.936 --    16 H    0.978    17 H    0.977    18 H    0.977
                            14 O    0.974
    16   1 H    0.994 --    15 C    0.978
    17   1 H    0.998 --    15 C    0.977
    18   1 H    0.998 --    15 C    0.977
 ---------------------------------------------------------------------------

Topologies differ in total number of bonds
Writing topology from bond orders to xtbtopo.mol

molecular dipole:
                 x           y           z       tot (Debye)
 q only:       -0.458       0.283      -0.298
   full:       -0.507       0.142      -0.543       1.923
molecular quadrupole (traceless):
                xx          xy          yy          xz          yz          zz
 q only:        2.038       3.660       2.657       0.189      -2.048      -4.695
  q+dip:        2.933       4.285       4.181       0.202      -4.013      -7.114
   full:        2.389       4.481       3.098       0.262      -4.041      -5.487


           -------------------------------------------------
          | TOTAL ENERGY              -26.553790304804 Eh   |
          | GRADIENT NORM               0.021795075808 Eh/α |
          | HOMO-LUMO GAP               3.776201650872 eV   |
           -------------------------------------------------

------------------------------------------------------------------------
 * finished run on 2021/11/15 at 09:23:09.109     
------------------------------------------------------------------------
 total:
 * wall-time:     0 d,  0 h,  0 min,  0.033 sec
 *  cpu-time:     0 d,  0 h,  0 min,  0.016 sec
 * ratio c/w:     0.478 speedup
 SCF:
 * wall-time:     0 d,  0 h,  0 min,  0.009 sec
 *  cpu-time:     0 d,  0 h,  0 min,  0.016 sec
 * ratio c/w:     1.831 speedup

