      -----------------------------------------------------------      
     |                   =====================                   |     
     |                           x T B                           |     
     |                   =====================                   |     
     |                         S. Grimme                         |     
     |          Mulliken Center for Theoretical Chemistry        |     
     |                    University of Bonn                     |     
      -----------------------------------------------------------      

   * xtb version 6.4.1 (afa7bdf) compiled by 'ehlert@majestix' on 2021-06-10

   xtb is free software: you can redistribute it and/or modify it under
   the terms of the GNU Lesser General Public License as published by
   the Free Software Foundation, either version 3 of the License, or
   (at your option) any later version.
   
   xtb is distributed in the hope that it will be useful,
   but WITHOUT ANY WARRANTY; without even the implied warranty of
   MERCHANTABILITY or FITNESS FOR A PARTICULAR PURPOSE.  See the
   GNU Lesser General Public License for more details.
   
   Cite this work as:
   * C. Bannwarth, E. Caldeweyher, S. Ehlert, A. Hansen, P. Pracht,
     J. Seibert, S. Spicher, S. Grimme, WIREs Comput. Mol. Sci., 2020, 11,
     e01493. DOI: 10.1002/wcms.1493
   
   for GFN2-xTB:
   * C. Bannwarth, S. Ehlert and S. Grimme., J. Chem. Theory Comput., 2019,
     15, 1652-1671. DOI: 10.1021/acs.jctc.8b01176
   for GFN1-xTB:
   * S. Grimme, C. Bannwarth, P. Shushkov, J. Chem. Theory Comput., 2017,
     13, 1989-2009. DOI: 10.1021/acs.jctc.7b00118
   for GFN0-xTB:
   * P. Pracht, E. Caldeweyher, S. Ehlert, S. Grimme, ChemRxiv, 2019, preprint.
     DOI: 10.26434/chemrxiv.8326202.v1
   for GFN-FF:
   * S. Spicher and S. Grimme, Angew. Chem. Int. Ed., 2020, 59, 15665-15673.
     DOI: 10.1002/anie.202004239
   
   for DFT-D4:
   * E. Caldeweyher, C. Bannwarth and S. Grimme, J. Chem. Phys., 2017,
     147, 034112. DOI: 10.1063/1.4993215
   * E. Caldeweyher, S. Ehlert, A. Hansen, H. Neugebauer, S. Spicher,
     C. Bannwarth and S. Grimme, J. Chem. Phys., 2019, 150, 154122.
     DOI: 10.1063/1.5090222
   * E. Caldeweyher, J.-M. Mewes, S. Ehlert and S. Grimme, Phys. Chem. Chem. Phys.
     2020, 22, 8499-8512. DOI: 10.1039/D0CP00502A
   
   for sTDA-xTB:
   * S. Grimme and C. Bannwarth, J. Chem. Phys., 2016, 145, 054103.
     DOI: 10.1063/1.4959605
   
   in the mass-spec context:
   * V. Asgeirsson, C. Bauer and S. Grimme, Chem. Sci., 2017, 8, 4879.
     DOI: 10.1039/c7sc00601b
   * J. Koopman and S. Grimme, ACS Omega 2019, 4, 12, 15120-15133.
     DOI: 10.1021/acsomega.9b02011
   
   for metadynamics refer to:
   * S. Grimme, J. Chem. Theory Comput., 2019, 155, 2847-2862
     DOI: 10.1021/acs.jctc.9b00143
   
   for SPH calculations refer to:
   * S. Spicher and S. Grimme, J. Chem. Theory Comput., 2021, 17, 1701-1714
     DOI: 10.1021/acs.jctc.0c01306
   
   with help from (in alphabetical order)
   P. Atkinson, C. Bannwarth, F. Bohle, G. Brandenburg, E. Caldeweyher
   M. Checinski, S. Dohm, S. Ehlert, S. Ehrlich, I. Gerasimov, J. Koopman
   C. Lavigne, S. Lehtola, F. März, M. Müller, F. Musil, H. Neugebauer
   J. Pisarek, C. Plett, P. Pracht, J. Seibert, P. Shushkov, S. Spicher
   M. Stahn, M. Steiner, T. Strunk, J. Stückrath, T. Rose, and J. Unsleber
   
 * started run on 2021/11/15 at 09:23:07.986     

           -------------------------------------------------
          |                Calculation Setup                |
           -------------------------------------------------

          program call               : xtb 09_4-methoxyphenol.xyz --gfn2 --chrg 0 --uhf 0 --alpb water -P 1
          coordinate file            : 09_4-methoxyphenol.xyz
          omp threads                :                     1
          number of atoms            :                    17
          number of electrons        :                    48
          charge                     :                     0
          spin                       :                   0.0
          first test random number   :      0.23020897785563

   ID    Z sym.   atoms
    1    6 C      1-6, 14
    2    1 H      7, 8, 10-12, 15-17
    3    8 O      9, 13

           -------------------------------------------------
          |                 G F N 2 - x T B                 |
           -------------------------------------------------

        Reference                      10.1021/acs.jctc.8b01176
      * Hamiltonian:
        H0-scaling (s, p, d)           1.850000    2.230000    2.230000
        zeta-weighting                 0.500000
      * Dispersion:
        s8                             2.700000
        a1                             0.520000
        a2                             5.000000
        s9                             5.000000
      * Repulsion:
        kExp                           1.500000    1.000000
        rExp                           1.000000
      * Coulomb:
        alpha                          2.000000
        third order                    shell-resolved
        anisotropic                    true
        a3                             3.000000
        a5                             4.000000
        cn-shift                       1.200000
        cn-exp                         4.000000
        max-rad                        5.000000

      * Solvation model:               ALPB
        Solvent                        water
        Parameter file                 internal GFN2-xTB/ALPB
        Dielectric constant                8.0200E+01
        Reference state                gsolv [1 M gas/solution]
        Free energy shift                  1.0808E-03 Eh       6.7819E-01 kcal/mol
        Temperature                        2.9815E+02 K
        Density                            1.0000E+00 kg/L
        Solvent mass                       1.8000E+01 g/mol
        Interaction kernel             P16
        Born radius scaling (c1)           1.4744E+00
        Born radii integrator          GBOBC
        Born offset                        0.0000E+00 a0       0.0000E+00 AA
        H-bond correction              true
        Ion screening                  false
        Surface tension                    1.0000E-05 Eh       1.5569E+01 dyn/cm
        Grid points                               230 per atom
q/qsh data taken from xtbrestart
CAMM data taken from xtbrestart

          ...................................................
          :                      SETUP                      :
          :.................................................:
          :  # basis functions                  44          :
          :  # atomic orbitals                  44          :
          :  # shells                           26          :
          :  # electrons                        48          :
          :  max. iterations                   250          :
          :  Hamiltonian                  GFN2-xTB          :
          :  restarted?                       true          :
          :  GBSA solvation                   true          :
          :  PC potential                    false          :
          :  electronic temp.          300.0000000     K    :
          :  accuracy                    1.0000000          :
          :  -> integral cutoff          0.2500000E+02      :
          :  -> integral neglect         0.1000000E-07      :
          :  -> SCF convergence          0.1000000E-05 Eh   :
          :  -> wf. convergence          0.1000000E-03 e    :
          :  Broyden damping             0.4000000          :
          ...................................................

 iter      E             dE          RMSdq      gap      omega  full diag
   1    -27.5502146 -0.275502E+02  0.134E-04    3.80       0.0  T
   2    -27.5502146 -0.635758E-10  0.865E-05    3.80     280.4  T
   3    -27.5502146 -0.195044E-10  0.568E-05    3.80     426.9  T

   *** convergence criteria satisfied after 3 iterations ***

         #    Occupation            Energy/Eh            Energy/eV
      -------------------------------------------------------------
         1        2.0000           -0.7130032             -19.4018
       ...           ...                  ...                  ...
        18        2.0000           -0.4723554             -12.8534
        19        2.0000           -0.4621560             -12.5759
        20        2.0000           -0.4541478             -12.3580
        21        2.0000           -0.4311139             -11.7312
        22        2.0000           -0.4214886             -11.4693
        23        2.0000           -0.4054262             -11.0322
        24        2.0000           -0.3675557             -10.0017 (HOMO)
        25                         -0.2280583              -6.2058 (LUMO)
        26                         -0.2073330              -5.6418
        27                         -0.0911418              -2.4801
        28                          0.0168807               0.4593
        29                          0.0665570               1.8111
       ...                                ...                  ...
        44                          0.6421206              17.4730
      -------------------------------------------------------------
                  HL-Gap            0.1394974 Eh            3.7959 eV
             Fermi-level           -0.2978070 Eh           -8.1037 eV

 SCC (total)                   0 d,  0 h,  0 min,  0.007 sec
 SCC setup                      ...        0 min,  0.000 sec (  5.785%)
 Dispersion                     ...        0 min,  0.000 sec (  1.620%)
 classical contributions        ...        0 min,  0.000 sec (  0.540%)
 integral evaluation            ...        0 min,  0.002 sec ( 21.300%)
 iterations                     ...        0 min,  0.002 sec ( 26.908%)
 molecular gradient             ...        0 min,  0.003 sec ( 41.375%)
 printout                       ...        0 min,  0.000 sec (  2.173%)

         :::::::::::::::::::::::::::::::::::::::::::::::::::::
         ::                     SUMMARY                     ::
         :::::::::::::::::::::::::::::::::::::::::::::::::::::
         :: total energy             -27.193618516134 Eh    ::
         :: total w/o Gsasa/hb       -27.189030203944 Eh    ::
         :: gradient norm              0.020883797370 Eh/a0 ::
         :: HOMO-LUMO gap              3.795918212959 eV    ::
         ::.................................................::
         :: SCC energy               -27.550214595734 Eh    ::
         :: -> isotropic ES            0.046975296166 Eh    ::
         :: -> anisotropic ES          0.003521162239 Eh    ::
         :: -> anisotropic XC          0.007595280158 Eh    ::
         :: -> dispersion             -0.012530675041 Eh    ::
         :: -> Gsolv                  -0.011094246892 Eh    ::
         ::    -> Gelec               -0.006505934701 Eh    ::
         ::    -> Gsasa                0.000839482164 Eh    ::
         ::    -> Ghb                 -0.006508554053 Eh    ::
         ::    -> Gshift               0.001080759698 Eh    ::
         :: repulsion energy           0.356596303413 Eh    ::
         :: add. restraining           0.000000000000 Eh    ::
         :: total charge               0.000000000000 e     ::
         :::::::::::::::::::::::::::::::::::::::::::::::::::::

           -------------------------------------------------
          |                Property Printout                |
           -------------------------------------------------

    * Orbital Energies and Occupations

         #    Occupation            Energy/Eh            Energy/eV
      -------------------------------------------------------------
         1        2.0000           -0.7130032             -19.4018
       ...           ...                  ...                  ...
        12        2.0000           -0.5407281             -14.7140
        13        2.0000           -0.5166397             -14.0585
        14        2.0000           -0.5150071             -14.0141
        15        2.0000           -0.4957218             -13.4893
        16        2.0000           -0.4808156             -13.0837
        17        2.0000           -0.4734253             -12.8826
        18        2.0000           -0.4723554             -12.8534
        19        2.0000           -0.4621560             -12.5759
        20        2.0000           -0.4541478             -12.3580
        21        2.0000           -0.4311139             -11.7312
        22        2.0000           -0.4214886             -11.4693
        23        2.0000           -0.4054262             -11.0322
        24        2.0000           -0.3675557             -10.0017 (HOMO)
        25                         -0.2280583              -6.2058 (LUMO)
        26                         -0.2073330              -5.6418
        27                         -0.0911418              -2.4801
        28                          0.0168807               0.4593
        29                          0.0665570               1.8111
        30                          0.1063246               2.8932
        31                          0.1269480               3.4544
        32                          0.1413996               3.8477
        33                          0.1507069               4.1009
        34                          0.1705512               4.6409
        35                          0.1937701               5.2728
       ...                                ...                  ...
        44                          0.6421206              17.4730
      -------------------------------------------------------------
                  HL-Gap            0.1394974 Eh            3.7959 eV
             Fermi-level           -0.2978070 Eh           -8.1037 eV

     #   Z          covCN         q      C6AA      α(0)
     1   6 C        2.857     0.129    25.166     8.222
     2   6 C        2.913    -0.072    29.785     8.949
     3   6 C        2.914    -0.063    29.559     8.915
     4   6 C        2.840     0.132    25.109     8.212
     5   6 C        2.913    -0.074    29.836     8.957
     6   6 C        2.915    -0.062    29.538     8.912
     7   1 H        0.925     0.052     2.294     2.368
     8   1 H        0.925     0.054     2.270     2.356
     9   8 O        1.658    -0.467    22.185     6.358
    10   1 H        0.805     0.369     0.545     1.159
    11   1 H        0.925     0.054     2.274     2.358
    12   1 H        0.925     0.051     2.304     2.374
    13   8 O        1.703    -0.310    19.177     5.912
    14   6 C        3.639     0.022    20.563     6.522
    15   1 H        0.924     0.078     1.999     2.211
    16   1 H        0.924     0.052     2.290     2.367
    17   1 H        0.924     0.052     2.290     2.367

 Mol. C6AA /au·bohr⁶  :       3196.161293
 Mol. C8AA /au·bohr⁸  :      75493.826706
 Mol. α(0) /au        :         88.521021


Wiberg/Mayer (AO) data.
largest (>0.10) Wiberg bond orders for each atom

 ---------------------------------------------------------------------------
     #   Z sym  total        # sym  WBO       # sym  WBO       # sym  WBO
 ---------------------------------------------------------------------------
     1   6 C    3.932 --     2 C    1.378     6 C    1.357    13 O    1.044
     2   6 C    3.987 --     3 C    1.439     1 C    1.378    12 H    0.965
                             5 C    0.104
     3   6 C    3.988 --     2 C    1.439     4 C    1.383    11 H    0.968
                             6 C    0.110
     4   6 C    3.939 --     3 C    1.383     5 C    1.363     9 O    1.058
     5   6 C    3.986 --     6 C    1.464     4 C    1.363     7 H    0.965
                             2 C    0.104
     6   6 C    3.987 --     5 C    1.464     1 C    1.357     8 H    0.968
                             3 C    0.110
     7   1 H    0.997 --     5 C    0.965
     8   1 H    0.997 --     6 C    0.968
     9   8 O    2.053 --     4 C    1.058    10 H    0.845
    10   1 H    0.863 --     9 O    0.845
    11   1 H    0.997 --     3 C    0.968
    12   1 H    0.997 --     2 C    0.965
    13   8 O    2.188 --     1 C    1.044    14 C    0.973
    14   6 C    3.933 --    15 H    0.978    16 H    0.977    17 H    0.977
                            13 O    0.973
    15   1 H    0.993 --    14 C    0.978
    16   1 H    0.997 --    14 C    0.977
    17   1 H    0.997 --    14 C    0.977
 ---------------------------------------------------------------------------

Topologies differ in total number of bonds
Writing topology from bond orders to xtbtopo.mol

molecular dipole:
                 x           y           z       tot (Debye)
 q only:        0.104      -0.093       0.000
   full:        0.112      -0.137       0.001       0.451
molecular quadrupole (traceless):
                xx          xy          yy          xz          yz          zz
 q only:        5.755      10.541      -1.460      -0.006      -0.000      -4.295
  q+dip:        5.073      12.546       0.917      -0.007       0.001      -5.990
   full:        4.961      12.877      -0.617      -0.007       0.000      -4.344


           -------------------------------------------------
          | TOTAL ENERGY              -27.193618516134 Eh   |
          | GRADIENT NORM               0.020883797370 Eh/α |
          | HOMO-LUMO GAP               3.795918212959 eV   |
           -------------------------------------------------

------------------------------------------------------------------------
 * finished run on 2021/11/15 at 09:23:08.019     
------------------------------------------------------------------------
 total:
 * wall-time:     0 d,  0 h,  0 min,  0.032 sec
 *  cpu-time:     0 d,  0 h,  0 min,  0.016 sec
 * ratio c/w:     0.487 speedup
 SCF:
 * wall-time:     0 d,  0 h,  0 min,  0.008 sec
 *  cpu-time:     0 d,  0 h,  0 min,  0.000 sec
 * ratio c/w:     0.000 speedup

