      -----------------------------------------------------------      
     |                   =====================                   |     
     |                           x T B                           |     
     |                   =====================                   |     
     |                         S. Grimme                         |     
     |          Mulliken Center for Theoretical Chemistry        |     
     |                    University of Bonn                     |     
      -----------------------------------------------------------      

   * xtb version 6.4.1 (afa7bdf) compiled by 'ehlert@majestix' on 2021-06-10

   xtb is free software: you can redistribute it and/or modify it under
   the terms of the GNU Lesser General Public License as published by
   the Free Software Foundation, either version 3 of the License, or
   (at your option) any later version.
   
   xtb is distributed in the hope that it will be useful,
   but WITHOUT ANY WARRANTY; without even the implied warranty of
   MERCHANTABILITY or FITNESS FOR A PARTICULAR PURPOSE.  See the
   GNU Lesser General Public License for more details.
   
   Cite this work as:
   * C. Bannwarth, E. Caldeweyher, S. Ehlert, A. Hansen, P. Pracht,
     J. Seibert, S. Spicher, S. Grimme, WIREs Comput. Mol. Sci., 2020, 11,
     e01493. DOI: 10.1002/wcms.1493
   
   for GFN2-xTB:
   * C. Bannwarth, S. Ehlert and S. Grimme., J. Chem. Theory Comput., 2019,
     15, 1652-1671. DOI: 10.1021/acs.jctc.8b01176
   for GFN1-xTB:
   * S. Grimme, C. Bannwarth, P. Shushkov, J. Chem. Theory Comput., 2017,
     13, 1989-2009. DOI: 10.1021/acs.jctc.7b00118
   for GFN0-xTB:
   * P. Pracht, E. Caldeweyher, S. Ehlert, S. Grimme, ChemRxiv, 2019, preprint.
     DOI: 10.26434/chemrxiv.8326202.v1
   for GFN-FF:
   * S. Spicher and S. Grimme, Angew. Chem. Int. Ed., 2020, 59, 15665-15673.
     DOI: 10.1002/anie.202004239
   
   for DFT-D4:
   * E. Caldeweyher, C. Bannwarth and S. Grimme, J. Chem. Phys., 2017,
     147, 034112. DOI: 10.1063/1.4993215
   * E. Caldeweyher, S. Ehlert, A. Hansen, H. Neugebauer, S. Spicher,
     C. Bannwarth and S. Grimme, J. Chem. Phys., 2019, 150, 154122.
     DOI: 10.1063/1.5090222
   * E. Caldeweyher, J.-M. Mewes, S. Ehlert and S. Grimme, Phys. Chem. Chem. Phys.
     2020, 22, 8499-8512. DOI: 10.1039/D0CP00502A
   
   for sTDA-xTB:
   * S. Grimme and C. Bannwarth, J. Chem. Phys., 2016, 145, 054103.
     DOI: 10.1063/1.4959605
   
   in the mass-spec context:
   * V. Asgeirsson, C. Bauer and S. Grimme, Chem. Sci., 2017, 8, 4879.
     DOI: 10.1039/c7sc00601b
   * J. Koopman and S. Grimme, ACS Omega 2019, 4, 12, 15120-15133.
     DOI: 10.1021/acsomega.9b02011
   
   for metadynamics refer to:
   * S. Grimme, J. Chem. Theory Comput., 2019, 155, 2847-2862
     DOI: 10.1021/acs.jctc.9b00143
   
   for SPH calculations refer to:
   * S. Spicher and S. Grimme, J. Chem. Theory Comput., 2021, 17, 1701-1714
     DOI: 10.1021/acs.jctc.0c01306
   
   with help from (in alphabetical order)
   P. Atkinson, C. Bannwarth, F. Bohle, G. Brandenburg, E. Caldeweyher
   M. Checinski, S. Dohm, S. Ehlert, S. Ehrlich, I. Gerasimov, J. Koopman
   C. Lavigne, S. Lehtola, F. März, M. Müller, F. Musil, H. Neugebauer
   J. Pisarek, C. Plett, P. Pracht, J. Seibert, P. Shushkov, S. Spicher
   M. Stahn, M. Steiner, T. Strunk, J. Stückrath, T. Rose, and J. Unsleber
   
 * started run on 2021/11/15 at 09:23:10.554     

           -------------------------------------------------
          |                Calculation Setup                |
           -------------------------------------------------

          program call               : xtb 40_3-methoxy-L-tyrosine.xyz --gfn2 --chrg 0 --uhf 0 --alpb water -P 1
          coordinate file            : 40_3-methoxy-L-tyrosine.xyz
          omp threads                :                     1
          number of atoms            :                    28
          number of electrons        :                    82
          charge                     :                     0
          spin                       :                   0.0
          first test random number   :      0.12840112900086

   ID    Z sym.   atoms
    1    8 O      1-3, 24
    2    7 N      4
    3    6 C      5-13, 25
    4    1 H      14-23, 26-28

           -------------------------------------------------
          |                 G F N 2 - x T B                 |
           -------------------------------------------------

        Reference                      10.1021/acs.jctc.8b01176
      * Hamiltonian:
        H0-scaling (s, p, d)           1.850000    2.230000    2.230000
        zeta-weighting                 0.500000
      * Dispersion:
        s8                             2.700000
        a1                             0.520000
        a2                             5.000000
        s9                             5.000000
      * Repulsion:
        kExp                           1.500000    1.000000
        rExp                           1.000000
      * Coulomb:
        alpha                          2.000000
        third order                    shell-resolved
        anisotropic                    true
        a3                             3.000000
        a5                             4.000000
        cn-shift                       1.200000
        cn-exp                         4.000000
        max-rad                        5.000000

      * Solvation model:               ALPB
        Solvent                        water
        Parameter file                 internal GFN2-xTB/ALPB
        Dielectric constant                8.0200E+01
        Reference state                gsolv [1 M gas/solution]
        Free energy shift                  1.0808E-03 Eh       6.7819E-01 kcal/mol
        Temperature                        2.9815E+02 K
        Density                            1.0000E+00 kg/L
        Solvent mass                       1.8000E+01 g/mol
        Interaction kernel             P16
        Born radius scaling (c1)           1.4744E+00
        Born radii integrator          GBOBC
        Born offset                        0.0000E+00 a0       0.0000E+00 AA
        H-bond correction              true
        Ion screening                  false
        Surface tension                    1.0000E-05 Eh       1.5569E+01 dyn/cm
        Grid points                               230 per atom
q/qsh data taken from xtbrestart
CAMM data taken from xtbrestart

          ...................................................
          :                      SETUP                      :
          :.................................................:
          :  # basis functions                  73          :
          :  # atomic orbitals                  73          :
          :  # shells                           43          :
          :  # electrons                        82          :
          :  max. iterations                   250          :
          :  Hamiltonian                  GFN2-xTB          :
          :  restarted?                       true          :
          :  GBSA solvation                   true          :
          :  PC potential                    false          :
          :  electronic temp.          300.0000000     K    :
          :  accuracy                    1.0000000          :
          :  -> integral cutoff          0.2500000E+02      :
          :  -> integral neglect         0.1000000E-07      :
          :  -> SCF convergence          0.1000000E-05 Eh   :
          :  -> wf. convergence          0.1000000E-03 e    :
          :  Broyden damping             0.4000000          :
          ...................................................

 iter      E             dE          RMSdq      gap      omega  full diag
   1    -47.7856774 -0.477857E+02  0.108E-04    4.01       0.0  T
   2    -47.7856774 -0.396270E-10  0.721E-05    4.01     262.0  T
   3    -47.7856774 -0.770228E-11  0.416E-05    4.01     454.7  T

   *** convergence criteria satisfied after 3 iterations ***

         #    Occupation            Energy/Eh            Energy/eV
      -------------------------------------------------------------
         1        2.0000           -0.7257768             -19.7494
       ...           ...                  ...                  ...
        35        2.0000           -0.4440253             -12.0825
        36        2.0000           -0.4300214             -11.7015
        37        2.0000           -0.4138309             -11.2609
        38        2.0000           -0.4034108             -10.9774
        39        2.0000           -0.3979675             -10.8292
        40        2.0000           -0.3831781             -10.4268
        41        2.0000           -0.3731153             -10.1530 (HOMO)
        42                         -0.2257516              -6.1430 (LUMO)
        43                         -0.2203222              -5.9953
        44                         -0.1934043              -5.2628
        45                         -0.0979359              -2.6650
        46                         -0.0535782              -1.4579
       ...                                ...                  ...
        73                          0.6395309              17.4025
      -------------------------------------------------------------
                  HL-Gap            0.1473637 Eh            4.0100 eV
             Fermi-level           -0.2994334 Eh           -8.1480 eV

 SCC (total)                   0 d,  0 h,  0 min,  0.017 sec
 SCC setup                      ...        0 min,  0.001 sec (  4.150%)
 Dispersion                     ...        0 min,  0.000 sec (  1.545%)
 classical contributions        ...        0 min,  0.000 sec (  0.227%)
 integral evaluation            ...        0 min,  0.004 sec ( 21.870%)
 iterations                     ...        0 min,  0.004 sec ( 25.950%)
 molecular gradient             ...        0 min,  0.008 sec ( 44.625%)
 printout                       ...        0 min,  0.000 sec (  1.498%)

         :::::::::::::::::::::::::::::::::::::::::::::::::::::
         ::                     SUMMARY                     ::
         :::::::::::::::::::::::::::::::::::::::::::::::::::::
         :: total energy             -47.251481759343 Eh    ::
         :: total w/o Gsasa/hb       -47.241437866741 Eh    ::
         :: gradient norm              0.046719792185 Eh/a0 ::
         :: HOMO-LUMO gap              4.009969473619 eV    ::
         ::.................................................::
         :: SCC energy               -47.785677353127 Eh    ::
         :: -> isotropic ES            0.213509931382 Eh    ::
         :: -> anisotropic ES         -0.010529433936 Eh    ::
         :: -> anisotropic XC          0.010198175319 Eh    ::
         :: -> dispersion             -0.024273036322 Eh    ::
         :: -> Gsolv                  -0.075199267371 Eh    ::
         ::    -> Gelec               -0.065155374769 Eh    ::
         ::    -> Gsasa                0.004530240412 Eh    ::
         ::    -> Ghb                 -0.015654892712 Eh    ::
         ::    -> Gshift               0.001080759698 Eh    ::
         :: repulsion energy           0.534047575253 Eh    ::
         :: add. restraining           0.000000000000 Eh    ::
         :: total charge               0.000000000000 e     ::
         :::::::::::::::::::::::::::::::::::::::::::::::::::::

           -------------------------------------------------
          |                Property Printout                |
           -------------------------------------------------

    * Orbital Energies and Occupations

         #    Occupation            Energy/Eh            Energy/eV
      -------------------------------------------------------------
         1        2.0000           -0.7257768             -19.7494
       ...           ...                  ...                  ...
        29        2.0000           -0.4896904             -13.3252
        30        2.0000           -0.4781452             -13.0110
        31        2.0000           -0.4686157             -12.7517
        32        2.0000           -0.4673368             -12.7169
        33        2.0000           -0.4549802             -12.3806
        34        2.0000           -0.4460869             -12.1386
        35        2.0000           -0.4440253             -12.0825
        36        2.0000           -0.4300214             -11.7015
        37        2.0000           -0.4138309             -11.2609
        38        2.0000           -0.4034108             -10.9774
        39        2.0000           -0.3979675             -10.8292
        40        2.0000           -0.3831781             -10.4268
        41        2.0000           -0.3731153             -10.1530 (HOMO)
        42                         -0.2257516              -6.1430 (LUMO)
        43                         -0.2203222              -5.9953
        44                         -0.1934043              -5.2628
        45                         -0.0979359              -2.6650
        46                         -0.0535782              -1.4579
        47                         -0.0001006              -0.0027
        48                          0.0439541               1.1961
        49                          0.0568740               1.5476
        50                          0.0738680               2.0101
        51                          0.0952714               2.5925
        52                          0.1017851               2.7697
       ...                                ...                  ...
        73                          0.6395309              17.4025
      -------------------------------------------------------------
                  HL-Gap            0.1473637 Eh            4.0100 eV
             Fermi-level           -0.2994334 Eh           -8.1480 eV

     #   Z          covCN         q      C6AA      α(0)
     1   8 O        0.856    -0.621    26.637     6.920
     2   8 O        1.658    -0.453    21.895     6.317
     3   8 O        0.856    -0.621    26.651     6.921
     4   7 N        3.483    -0.181    24.916     7.414
     5   6 C        3.805    -0.073    21.886     6.660
     6   6 C        3.776    -0.007    20.723     6.486
     7   6 C        2.961    -0.003    28.092     8.694
     8   6 C        2.915    -0.081    30.013     8.984
     9   6 C        2.917    -0.061    29.522     8.910
    10   6 C        2.857     0.108    25.600     8.293
    11   6 C        2.911    -0.066    29.645     8.928
    12   6 C        2.687     0.364    20.821     7.468
    13   6 C        2.842     0.121    25.338     8.249
    14   1 H        0.924     0.071     2.072     2.251
    15   1 H        0.924     0.062     2.171     2.304
    16   1 H        0.925     0.088     1.903     2.157
    17   1 H        0.925     0.051     2.309     2.376
    18   1 H        0.925     0.056     2.252     2.347
    19   1 H        0.925     0.061     2.193     2.316
    20   1 H        0.859     0.295     0.729     1.338
    21   1 H        0.858     0.306     0.695     1.306
    22   1 H        0.805     0.370     0.543     1.158
    23   1 H        0.860     0.308     0.691     1.302
    24   8 O        1.703    -0.306    19.089     5.899
    25   6 C        3.638     0.019    20.629     6.533
    26   1 H        0.924     0.059     2.216     2.328
    27   1 H        0.924     0.079     1.985     2.203
    28   1 H        0.924     0.054     2.266     2.354

 Mol. C6AA /au·bohr⁶  :       8215.666661
 Mol. C8AA /au·bohr⁸  :     189955.724490
 Mol. α(0) /au        :        138.414641


Wiberg/Mayer (AO) data.
largest (>0.10) Wiberg bond orders for each atom

 ---------------------------------------------------------------------------
     #   Z sym  total        # sym  WBO       # sym  WBO       # sym  WBO
 ---------------------------------------------------------------------------
     1   8 O    1.845 --    12 C    1.472     3 O    0.220
     2   8 O    2.075 --    13 C    1.071    22 H    0.839
     3   8 O    1.835 --    12 C    1.535     1 O    0.220
     4   7 N    3.639 --     6 C    0.952    23 H    0.896    20 H    0.895
                            21 H    0.838
     5   6 C    3.987 --     7 C    1.008     6 C    0.980    15 H    0.971
                            14 H    0.958
     6   6 C    3.930 --     5 C    0.980    16 H    0.957     4 N    0.952
                            12 C    0.900
     7   6 C    3.986 --     9 C    1.435     8 C    1.373     5 C    1.008
     8   6 C    3.983 --    10 C    1.417     7 C    1.373    17 H    0.963
     9   6 C    3.985 --     7 C    1.435    11 C    1.407    18 H    0.966
    10   6 C    3.930 --     8 C    1.417    13 C    1.275    24 O    1.044
    11   6 C    3.984 --    13 C    1.414     9 C    1.407    19 H    0.966
    12   6 C    3.936 --     3 O    1.535     1 O    1.472     6 C    0.900
    13   6 C    3.939 --    11 C    1.414    10 C    1.275     2 O    1.071
    14   1 H    0.994 --     5 C    0.958
    15   1 H    0.996 --     5 C    0.971
    16   1 H    0.992 --     6 C    0.957
    17   1 H    0.997 --     8 C    0.963
    18   1 H    0.997 --     9 C    0.966
    19   1 H    0.995 --    11 C    0.966
    20   1 H    0.913 --     4 N    0.895
    21   1 H    0.906 --     4 N    0.838
    22   1 H    0.863 --     2 O    0.839
    23   1 H    0.905 --     4 N    0.896
    24   8 O    2.201 --    10 C    1.044    25 C    0.967
    25   6 C    3.930 --    27 H    0.978    28 H    0.977    26 H    0.977
                            24 O    0.967
    26   1 H    0.997 --    25 C    0.977
    27   1 H    0.993 --    25 C    0.978
    28   1 H    0.997 --    25 C    0.977
 ---------------------------------------------------------------------------

Topologies differ in total number of bonds
Writing topology from bond orders to xtbtopo.mol

molecular dipole:
                 x           y           z       tot (Debye)
 q only:        3.605      -1.448       2.595
   full:        3.712      -1.181       2.656      11.984
molecular quadrupole (traceless):
                xx          xy          yy          xz          yz          zz
 q only:      -51.873      29.839      24.918     -16.498      -0.400      26.955
  q+dip:      -53.608      32.273      26.577     -16.248       1.327      27.031
   full:      -54.827      32.277      25.907     -17.006       1.163      28.920


           -------------------------------------------------
          | TOTAL ENERGY              -47.251481759343 Eh   |
          | GRADIENT NORM               0.046719792185 Eh/α |
          | HOMO-LUMO GAP               4.009969473619 eV   |
           -------------------------------------------------

------------------------------------------------------------------------
 * finished run on 2021/11/15 at 09:23:10.598     
------------------------------------------------------------------------
 total:
 * wall-time:     0 d,  0 h,  0 min,  0.044 sec
 *  cpu-time:     0 d,  0 h,  0 min,  0.016 sec
 * ratio c/w:     0.358 speedup
 SCF:
 * wall-time:     0 d,  0 h,  0 min,  0.018 sec
 *  cpu-time:     0 d,  0 h,  0 min,  0.016 sec
 * ratio c/w:     0.885 speedup

