      -----------------------------------------------------------      
     |                   =====================                   |     
     |                           x T B                           |     
     |                   =====================                   |     
     |                         S. Grimme                         |     
     |          Mulliken Center for Theoretical Chemistry        |     
     |                    University of Bonn                     |     
      -----------------------------------------------------------      

   * xtb version 6.4.1 (afa7bdf) compiled by 'ehlert@majestix' on 2021-06-10

   xtb is free software: you can redistribute it and/or modify it under
   the terms of the GNU Lesser General Public License as published by
   the Free Software Foundation, either version 3 of the License, or
   (at your option) any later version.
   
   xtb is distributed in the hope that it will be useful,
   but WITHOUT ANY WARRANTY; without even the implied warranty of
   MERCHANTABILITY or FITNESS FOR A PARTICULAR PURPOSE.  See the
   GNU Lesser General Public License for more details.
   
   Cite this work as:
   * C. Bannwarth, E. Caldeweyher, S. Ehlert, A. Hansen, P. Pracht,
     J. Seibert, S. Spicher, S. Grimme, WIREs Comput. Mol. Sci., 2020, 11,
     e01493. DOI: 10.1002/wcms.1493
   
   for GFN2-xTB:
   * C. Bannwarth, S. Ehlert and S. Grimme., J. Chem. Theory Comput., 2019,
     15, 1652-1671. DOI: 10.1021/acs.jctc.8b01176
   for GFN1-xTB:
   * S. Grimme, C. Bannwarth, P. Shushkov, J. Chem. Theory Comput., 2017,
     13, 1989-2009. DOI: 10.1021/acs.jctc.7b00118
   for GFN0-xTB:
   * P. Pracht, E. Caldeweyher, S. Ehlert, S. Grimme, ChemRxiv, 2019, preprint.
     DOI: 10.26434/chemrxiv.8326202.v1
   for GFN-FF:
   * S. Spicher and S. Grimme, Angew. Chem. Int. Ed., 2020, 59, 15665-15673.
     DOI: 10.1002/anie.202004239
   
   for DFT-D4:
   * E. Caldeweyher, C. Bannwarth and S. Grimme, J. Chem. Phys., 2017,
     147, 034112. DOI: 10.1063/1.4993215
   * E. Caldeweyher, S. Ehlert, A. Hansen, H. Neugebauer, S. Spicher,
     C. Bannwarth and S. Grimme, J. Chem. Phys., 2019, 150, 154122.
     DOI: 10.1063/1.5090222
   * E. Caldeweyher, J.-M. Mewes, S. Ehlert and S. Grimme, Phys. Chem. Chem. Phys.
     2020, 22, 8499-8512. DOI: 10.1039/D0CP00502A
   
   for sTDA-xTB:
   * S. Grimme and C. Bannwarth, J. Chem. Phys., 2016, 145, 054103.
     DOI: 10.1063/1.4959605
   
   in the mass-spec context:
   * V. Asgeirsson, C. Bauer and S. Grimme, Chem. Sci., 2017, 8, 4879.
     DOI: 10.1039/c7sc00601b
   * J. Koopman and S. Grimme, ACS Omega 2019, 4, 12, 15120-15133.
     DOI: 10.1021/acsomega.9b02011
   
   for metadynamics refer to:
   * S. Grimme, J. Chem. Theory Comput., 2019, 155, 2847-2862
     DOI: 10.1021/acs.jctc.9b00143
   
   for SPH calculations refer to:
   * S. Spicher and S. Grimme, J. Chem. Theory Comput., 2021, 17, 1701-1714
     DOI: 10.1021/acs.jctc.0c01306
   
   with help from (in alphabetical order)
   P. Atkinson, C. Bannwarth, F. Bohle, G. Brandenburg, E. Caldeweyher
   M. Checinski, S. Dohm, S. Ehlert, S. Ehrlich, I. Gerasimov, J. Koopman
   C. Lavigne, S. Lehtola, F. März, M. Müller, F. Musil, H. Neugebauer
   J. Pisarek, C. Plett, P. Pracht, J. Seibert, P. Shushkov, S. Spicher
   M. Stahn, M. Steiner, T. Strunk, J. Stückrath, T. Rose, and J. Unsleber
   
 * started run on 2021/11/15 at 09:36:24.226     

           -------------------------------------------------
          |                Calculation Setup                |
           -------------------------------------------------

          program call               : xtb 39_3-amino-L-tyrosine.xyz --gfn2 --chrg 0 --uhf 0 --alpb water --ohess -P 1
          coordinate file            : 39_3-amino-L-tyrosine.xyz
          omp threads                :                     1
          number of atoms            :                    26
          number of electrons        :                    76
          charge                     :                     0
          spin                       :                   0.0
          first test random number   :      0.60644972955260

   ID    Z sym.   atoms
    1    8 O      1-3
    2    7 N      4, 5
    3    6 C      6-14
    4    1 H      15-26

           -------------------------------------------------
          |                 G F N 2 - x T B                 |
           -------------------------------------------------

        Reference                      10.1021/acs.jctc.8b01176
      * Hamiltonian:
        H0-scaling (s, p, d)           1.850000    2.230000    2.230000
        zeta-weighting                 0.500000
      * Dispersion:
        s8                             2.700000
        a1                             0.520000
        a2                             5.000000
        s9                             5.000000
      * Repulsion:
        kExp                           1.500000    1.000000
        rExp                           1.000000
      * Coulomb:
        alpha                          2.000000
        third order                    shell-resolved
        anisotropic                    true
        a3                             3.000000
        a5                             4.000000
        cn-shift                       1.200000
        cn-exp                         4.000000
        max-rad                        5.000000

      * Solvation model:               ALPB
        Solvent                        water
        Parameter file                 internal GFN2-xTB/ALPB
        Dielectric constant                8.0200E+01
        Reference state                gsolv [1 M gas/solution]
        Free energy shift                  1.0808E-03 Eh       6.7819E-01 kcal/mol
        Temperature                        2.9815E+02 K
        Density                            1.0000E+00 kg/L
        Solvent mass                       1.8000E+01 g/mol
        Interaction kernel             P16
        Born radius scaling (c1)           1.4744E+00
        Born radii integrator          GBOBC
        Born offset                        0.0000E+00 a0       0.0000E+00 AA
        H-bond correction              true
        Ion screening                  false
        Surface tension                    1.0000E-05 Eh       1.5569E+01 dyn/cm
        Grid points                               230 per atom

          ...................................................
          :                      SETUP                      :
          :.................................................:
          :  # basis functions                  68          :
          :  # atomic orbitals                  68          :
          :  # shells                           40          :
          :  # electrons                        76          :
          :  max. iterations                   250          :
          :  Hamiltonian                  GFN2-xTB          :
          :  restarted?                      false          :
          :  GBSA solvation                   true          :
          :  PC potential                    false          :
          :  electronic temp.          300.0000000     K    :
          :  accuracy                    1.0000000          :
          :  -> integral cutoff          0.2500000E+02      :
          :  -> integral neglect         0.1000000E-07      :
          :  -> SCF convergence          0.1000000E-05 Eh   :
          :  -> wf. convergence          0.1000000E-03 e    :
          :  Broyden damping             0.4000000          :
          ...................................................

 iter      E             dE          RMSdq      gap      omega  full diag
   1    -43.8540862 -0.438541E+02  0.483E+00    3.13       0.0  T
   2    -43.9698254 -0.115739E+00  0.247E+00    3.30       1.0  T
   3    -43.9737926 -0.396722E-02  0.115E+00    3.69       1.0  T
   4    -43.9753325 -0.153996E-02  0.366E-01    3.69       1.0  T
   5    -43.9771218 -0.178930E-02  0.111E-01    3.71       1.0  T
   6    -43.9771721 -0.502219E-04  0.591E-02    3.71       1.0  T
   7    -43.9771833 -0.112536E-04  0.166E-02    3.71       1.2  T
   8    -43.9771855 -0.217851E-05  0.666E-03    3.71       2.9  T
   9    -43.9771857 -0.193113E-06  0.365E-03    3.71       5.4  T
  10    -43.9771857 -0.495580E-07  0.113E-03    3.71      17.4  T
  11    -43.9771858 -0.523481E-08  0.526E-04    3.71      37.3  T
  12    -43.9771858 -0.198375E-08  0.289E-04    3.71      67.9  T

   *** convergence criteria satisfied after 12 iterations ***

         #    Occupation            Energy/Eh            Energy/eV
      -------------------------------------------------------------
         1        2.0000           -0.7034327             -19.1414
       ...           ...                  ...                  ...
        32        2.0000           -0.4320677             -11.7572
        33        2.0000           -0.4242949             -11.5457
        34        2.0000           -0.4127331             -11.2310
        35        2.0000           -0.4022011             -10.9444
        36        2.0000           -0.3878157             -10.5530
        37        2.0000           -0.3793095             -10.3215
        38        2.0000           -0.3538164              -9.6278 (HOMO)
        39                         -0.2175754              -5.9205 (LUMO)
        40                         -0.2110479              -5.7429
        41                         -0.1917771              -5.2185
        42                         -0.0904833              -2.4622
        43                         -0.0516837              -1.4064
       ...                                ...                  ...
        68                          0.6408530              17.4385
      -------------------------------------------------------------
                  HL-Gap            0.1362410 Eh            3.7073 eV
             Fermi-level           -0.2856959 Eh           -7.7742 eV

 SCC (total)                   0 d,  0 h,  0 min,  0.022 sec
 SCC setup                      ...        0 min,  0.001 sec (  3.746%)
 Dispersion                     ...        0 min,  0.000 sec (  1.370%)
 classical contributions        ...        0 min,  0.000 sec (  0.182%)
 integral evaluation            ...        0 min,  0.004 sec ( 18.487%)
 iterations                     ...        0 min,  0.010 sec ( 46.145%)
 molecular gradient             ...        0 min,  0.006 sec ( 28.973%)
 printout                       ...        0 min,  0.000 sec (  0.978%)

         :::::::::::::::::::::::::::::::::::::::::::::::::::::
         ::                     SUMMARY                     ::
         :::::::::::::::::::::::::::::::::::::::::::::::::::::
         :: total energy             -43.456898650356 Eh    ::
         :: total w/o Gsasa/hb       -43.442519423578 Eh    ::
         :: gradient norm              0.044186787920 Eh/a0 ::
         :: HOMO-LUMO gap              3.707307579184 eV    ::
         ::.................................................::
         :: SCC energy               -43.977185753115 Eh    ::
         :: -> isotropic ES            0.210532144442 Eh    ::
         :: -> anisotropic ES         -0.007462186161 Eh    ::
         :: -> anisotropic XC          0.012717490387 Eh    ::
         :: -> dispersion             -0.022739454426 Eh    ::
         :: -> Gsolv                  -0.080350478980 Eh    ::
         ::    -> Gelec               -0.065971252202 Eh    ::
         ::    -> Gsasa                0.002588738255 Eh    ::
         ::    -> Ghb                 -0.018048724730 Eh    ::
         ::    -> Gshift               0.001080759698 Eh    ::
         :: repulsion energy           0.520192975271 Eh    ::
         :: add. restraining           0.000000000000 Eh    ::
         :: total charge              -0.000000000000 e     ::
         :::::::::::::::::::::::::::::::::::::::::::::::::::::

      ----------------------------------------------------------- 
     |                   =====================                   |
     |                        A N C O P T                        |
     |                   =====================                   |
     |               Approximate Normal Coordinate               |
     |                Rational Function Optimizer                |
      ----------------------------------------------------------- 

          ...................................................
          :                      SETUP                      :
          :.................................................:
          :   optimization level            normal          :
          :   max. optcycles                   200          :
          :   ANC micro-cycles                  20          :
          :   degrees of freedom                72          :
          :.................................................:
          :   RF solver                   davidson          :
          :   write xtbopt.log                true          :
          :   linear?                        false          :
          :   energy convergence         0.5000000E-05 Eh   :
          :   grad. convergence          0.1000000E-02 Eh/α :
          :   maximium RF displ.         1.0000000          :
          :   Hlow (freq-cutoff)         0.1000000E-01      :
          :   Hmax (freq-cutoff)         5.0000000          :
          :   S6 in model hess.         20.0000000          :
          ...................................................

generating ANC from model Hessian ...
Using Lindh-Hessian (1995)
 Shifting diagonal of input Hessian by   9.064773396924321E-003
 Lowest  eigenvalues of input Hessian
    0.000000    0.000000    0.000000    0.000000    0.000000    0.000000
    0.010000    0.010296    0.010796    0.014435    0.017301    0.019306
    0.020767    0.022707    0.023903    0.024085    0.025521    0.028604
 Highest eigenvalues
    1.664548    1.751015    1.875829    1.995153    2.092955    2.311095
 

........................................................................
.............................. CYCLE    1 ..............................
........................................................................
   1    -43.9771858 -0.439772E+02  0.104E-04    3.71       0.0  T
   2    -43.9771858 -0.450058E-10  0.707E-05    3.71     277.4  T
   3    -43.9771858 -0.134222E-10  0.462E-05    3.71     424.5  T
     SCC iter.                  ...        0 min,  0.003 sec
     gradient                   ...        0 min,  0.006 sec
 * total energy  :   -43.4568987 Eh     change       -0.4533760E-09 Eh
   gradient norm :     0.0441858 Eh/α   predicted     0.0000000E+00 (-100.00%)
   displ. norm   :     0.1822613 α      lambda       -0.3798006E-02
   maximum displ.:     0.0552873 α      in ANC's #6, #5, #13, ...

........................................................................
.............................. CYCLE    2 ..............................
........................................................................
   1    -43.9935633 -0.439936E+02  0.154E-01    3.73       0.0  T
   2    -43.9936101 -0.468028E-04  0.884E-02    3.74       1.0  T
   3    -43.9936060  0.408819E-05  0.410E-02    3.74       1.0  T
   4    -43.9936186 -0.125765E-04  0.666E-03    3.74       2.9  T
   5    -43.9936191 -0.493316E-06  0.292E-03    3.74       6.7  T
   6    -43.9936191 -0.227062E-07  0.144E-03    3.74      13.6  T
   7    -43.9936191 -0.613689E-08  0.467E-04    3.74      42.0  T
   8    -43.9936191 -0.147142E-08  0.254E-04    3.74      77.2  T
     SCC iter.                  ...        0 min,  0.007 sec
     gradient                   ...        0 min,  0.007 sec
 * total energy  :   -43.4593987 Eh     change       -0.2500099E-02 Eh
   gradient norm :     0.0219263 Eh/α   predicted    -0.1962247E-02 ( -21.51%)
   displ. norm   :     0.2208790 α      lambda       -0.2161531E-02
   maximum displ.:     0.1091596 α      in ANC's #15, #6, #12, ...

........................................................................
.............................. CYCLE    3 ..............................
........................................................................
   1    -44.0046211 -0.440046E+02  0.154E-01    3.73       0.0  T
   2    -44.0046743 -0.532275E-04  0.882E-02    3.75       1.0  T
   3    -44.0046709  0.333326E-05  0.434E-02    3.74       1.0  T
   4    -44.0046843 -0.133193E-04  0.701E-03    3.75       2.8  T
   5    -44.0046848 -0.516152E-06  0.288E-03    3.75       6.8  T
   6    -44.0046848 -0.230558E-07  0.133E-03    3.75      14.8  T
   7    -44.0046848 -0.532958E-08  0.437E-04    3.75      44.9  T
   8    -44.0046848 -0.166301E-08  0.225E-04    3.75      87.3  T
     SCC iter.                  ...        0 min,  0.007 sec
     gradient                   ...        0 min,  0.006 sec
 * total energy  :   -43.4599284 Eh     change       -0.5296091E-03 Eh
   gradient norm :     0.0186503 Eh/α   predicted    -0.1133495E-02 ( 114.02%)
   displ. norm   :     0.1015843 α      lambda       -0.1151274E-02
   maximum displ.:     0.0347603 α      in ANC's #23, #5, #2, ...

........................................................................
.............................. CYCLE    4 ..............................
........................................................................
   1    -44.0038854 -0.440039E+02  0.814E-02    3.73       0.0  T
   2    -44.0038926 -0.715999E-05  0.482E-02    3.73       1.0  T
   3    -44.0038907  0.182155E-05  0.157E-02    3.73       1.2  T
   4    -44.0038936 -0.284276E-05  0.338E-03    3.73       5.8  T
   5    -44.0038937 -0.113073E-06  0.130E-03    3.73      15.0  T
   6    -44.0038937 -0.399423E-08  0.634E-04    3.73      30.9  T
   7    -44.0038937 -0.155813E-08  0.244E-04    3.73      80.3  T
     SCC iter.                  ...        0 min,  0.006 sec
     gradient                   ...        0 min,  0.006 sec
 * total energy  :   -43.4605291 Eh     change       -0.6006962E-03 Eh
   gradient norm :     0.0097435 Eh/α   predicted    -0.5815863E-03 (  -3.18%)
   displ. norm   :     0.0572642 α      lambda       -0.2081885E-03
   maximum displ.:     0.0285834 α      in ANC's #2, #9, #15, ...

........................................................................
.............................. CYCLE    5 ..............................
........................................................................
   1    -44.0008956 -0.440009E+02  0.368E-02    3.72       0.0  T
   2    -44.0008987 -0.314325E-05  0.211E-02    3.72       1.0  T
   3    -44.0008987  0.403581E-07  0.898E-03    3.72       2.2  T
   4    -44.0008991 -0.448967E-06  0.198E-03    3.72       9.9  T
   5    -44.0008992 -0.317555E-07  0.871E-04    3.72      22.5  T
   6    -44.0008992 -0.477070E-08  0.436E-04    3.72      45.0  T
     SCC iter.                  ...        0 min,  0.005 sec
     gradient                   ...        0 min,  0.006 sec
 * total energy  :   -43.4606753 Eh     change       -0.1462269E-03 Eh
   gradient norm :     0.0046923 Eh/α   predicted    -0.1044364E-03 ( -28.58%)
   displ. norm   :     0.0896384 α      lambda       -0.1358187E-03
   maximum displ.:     0.0517081 α      in ANC's #2, #9, #15, ...

........................................................................
.............................. CYCLE    6 ..............................
........................................................................
   1    -43.9997917 -0.439998E+02  0.465E-02    3.70       0.0  T
   2    -43.9997980 -0.626594E-05  0.259E-02    3.71       1.0  T
   3    -43.9997980 -0.826881E-08  0.141E-02    3.71       1.4  T
   4    -43.9997992 -0.123541E-05  0.313E-03    3.71       6.3  T
   5    -43.9997993 -0.595775E-07  0.114E-03    3.71      17.2  T
   6    -43.9997993 -0.687091E-08  0.590E-04    3.71      33.2  T
   7    -43.9997993 -0.115442E-08  0.187E-04    3.71     104.7  T
     SCC iter.                  ...        0 min,  0.006 sec
     gradient                   ...        0 min,  0.006 sec
 * total energy  :   -43.4607587 Eh     change       -0.8344414E-04 Eh
   gradient norm :     0.0028656 Eh/α   predicted    -0.6846809E-04 ( -17.95%)
   displ. norm   :     0.0443647 α      lambda       -0.2917132E-04
   maximum displ.:     0.0321534 α      in ANC's #2, #9, #5, ...

........................................................................
.............................. CYCLE    7 ..............................
........................................................................
   1    -44.0003469 -0.440003E+02  0.197E-02    3.70       0.0  T
   2    -44.0003481 -0.113200E-05  0.110E-02    3.70       1.8  T
   3    -44.0003482 -0.759001E-07  0.660E-03    3.70       3.0  T
   4    -44.0003484 -0.252460E-06  0.116E-03    3.70      16.9  T
   5    -44.0003484 -0.581829E-08  0.442E-04    3.71      44.4  T
   6    -44.0003484 -0.144134E-08  0.233E-04    3.71      84.1  T
     SCC iter.                  ...        0 min,  0.005 sec
     gradient                   ...        0 min,  0.006 sec
 * total energy  :   -43.4607799 Eh     change       -0.2118694E-04 Eh
   gradient norm :     0.0018502 Eh/α   predicted    -0.1461615E-04 ( -31.01%)
   displ. norm   :     0.0719112 α      lambda       -0.2129316E-04
   maximum displ.:     0.0551780 α      in ANC's #2, #7, #5, ...

........................................................................
.............................. CYCLE    8 ..............................
........................................................................
   1    -44.0014991 -0.440015E+02  0.271E-02    3.70       0.0  T
   2    -44.0015009 -0.175636E-05  0.152E-02    3.70       1.3  T
   3    -44.0015010 -0.142467E-06  0.913E-03    3.70       2.1  T
   4    -44.0015015 -0.487073E-06  0.127E-03    3.70      15.4  T
   5    -44.0015015 -0.997316E-08  0.547E-04    3.70      35.8  T
   6    -44.0015015 -0.155481E-08  0.267E-04    3.70      73.4  T
     SCC iter.                  ...        0 min,  0.005 sec
     gradient                   ...        0 min,  0.006 sec
 * total energy  :   -43.4607972 Eh     change       -0.1729057E-04 Eh
   gradient norm :     0.0017661 Eh/α   predicted    -0.1067204E-04 ( -38.28%)
   displ. norm   :     0.0325189 α      lambda       -0.6895849E-05
   maximum displ.:     0.0230721 α      in ANC's #2, #7, #3, ...

........................................................................
.............................. CYCLE    9 ..............................
........................................................................
   1    -44.0015154 -0.440015E+02  0.903E-03    3.70       0.0  T
   2    -44.0015156 -0.188655E-06  0.520E-03    3.70       3.8  T
   3    -44.0015156  0.942610E-08  0.219E-03    3.70       9.0  T
   4    -44.0015156 -0.372290E-07  0.546E-04    3.70      35.9  T
   5    -44.0015156 -0.232560E-08  0.217E-04    3.70      90.5  T
     SCC iter.                  ...        0 min,  0.007 sec
     gradient                   ...        0 min,  0.008 sec
 * total energy  :   -43.4608056 Eh     change       -0.8370541E-05 Eh
   gradient norm :     0.0010968 Eh/α   predicted    -0.3452219E-05 ( -58.76%)
   displ. norm   :     0.0673405 α      lambda       -0.9828454E-05
   maximum displ.:     0.0461022 α      in ANC's #2, #7, #3, ...

........................................................................
.............................. CYCLE   10 ..............................
........................................................................
   1    -44.0013425 -0.440013E+02  0.180E-02    3.70       0.0  T
   2    -44.0013429 -0.433019E-06  0.103E-02    3.70       1.9  T
   3    -44.0013429  0.774747E-07  0.363E-03    3.70       5.4  T
   4    -44.0013430 -0.151786E-06  0.830E-04    3.70      23.6  T
   5    -44.0013430 -0.572687E-08  0.321E-04    3.70      61.1  T
     SCC iter.                  ...        0 min,  0.005 sec
     gradient                   ...        0 min,  0.007 sec
 * total energy  :   -43.4608153 Eh     change       -0.9683271E-05 Eh
   gradient norm :     0.0009951 Eh/α   predicted    -0.4925087E-05 ( -49.14%)
   displ. norm   :     0.0467649 α      lambda       -0.3557034E-05
   maximum displ.:     0.0335020 α      in ANC's #2, #3, #7, ...

........................................................................
.............................. CYCLE   11 ..............................
........................................................................
   1    -44.0014181 -0.440014E+02  0.118E-02    3.70       0.0  T
   2    -44.0014182 -0.548800E-07  0.686E-03    3.70       2.9  T
   3    -44.0014181  0.431688E-07  0.194E-03    3.70      10.1  T
   4    -44.0014182 -0.639218E-07  0.322E-04    3.70      61.0  T
   5    -44.0014182 -0.196501E-09  0.168E-04    3.70     116.9  T
     SCC iter.                  ...        0 min,  0.005 sec
     gradient                   ...        0 min,  0.007 sec
 * total energy  :   -43.4608192 Eh     change       -0.3917201E-05 Eh
   gradient norm :     0.0011055 Eh/α   predicted    -0.1782928E-05 ( -54.48%)
   displ. norm   :     0.0416069 α      lambda       -0.2787380E-05
   maximum displ.:     0.0300728 α      in ANC's #2, #3, #7, ...

........................................................................
.............................. CYCLE   12 ..............................
........................................................................
   1    -44.0014287 -0.440014E+02  0.101E-02    3.70       0.0  T
   2    -44.0014287 -0.576657E-07  0.587E-03    3.70       3.3  T
   3    -44.0014287  0.167380E-07  0.138E-03    3.70      14.2  T
   4    -44.0014287 -0.288063E-07  0.309E-04    3.70      63.5  T
   5    -44.0014287 -0.630706E-09  0.157E-04    3.70     125.1  T
     SCC iter.                  ...        0 min,  0.005 sec
     gradient                   ...        0 min,  0.006 sec
 * total energy  :   -43.4608221 Eh     change       -0.2953582E-05 Eh
   gradient norm :     0.0005893 Eh/α   predicted    -0.1397604E-05 ( -52.68%)
   displ. norm   :     0.0321887 α      lambda       -0.1781526E-05
   maximum displ.:     0.0244372 α      in ANC's #2, #3, #7, ...

   *** GEOMETRY OPTIMIZATION CONVERGED AFTER 12 ITERATIONS ***

------------------------------------------------------------------------
 total energy gain   :        -0.0039235 Eh       -2.4620 kcal/mol
 total RMSD          :         0.1266718 a0        0.0670 Å
 total power (kW/mol):        -0.8584242 (step)  -51.6247 (real)
------------------------------------------------------------------------

 ANCopt (total)                0 d,  0 h,  0 min,  0.200 sec
 optimizer setup                ...        0 min,  0.000 sec (  0.089%)
 model hessian                  ...        0 min,  0.007 sec (  3.290%)
 ANC generation                 ...        0 min,  0.001 sec (  0.311%)
 coordinate transformation      ...        0 min,  0.000 sec (  0.058%)
 single point calculation       ...        0 min,  0.188 sec ( 94.318%)
 optimization log               ...        0 min,  0.002 sec (  1.222%)
 hessian update                 ...        0 min,  0.000 sec (  0.051%)
 rational function              ...        0 min,  0.001 sec (  0.349%)

================
 final structure:
================
26
 xtb: 6.4.1 (afa7bdf)
O         3.90962051840010    1.36752852216804    0.52552345123168
O        -4.28953275695664   -0.53237907735867   -0.35495529114454
O         4.23412718561617   -0.67005301726356   -0.34886836855403
N         1.91676290210147   -1.07796575239020   -1.16932732795472
N        -3.15898766493921    1.93297351054422   -0.45718855286791
C         1.19951788197429    0.08873597628070    0.89856351026505
C         2.01647365727415    0.17466169301132   -0.39261295074955
C        -0.26530797732763   -0.09152083281275    0.60485114606513
C        -1.02986818522860    0.99137360148493    0.19013559225433
C        -0.85782886889317   -1.34173332003167    0.69356727168376
C        -2.37793863160713    0.85617792470812   -0.12280540013265
C        -2.20231874802124   -1.50210652420694    0.38098360429152
C         3.54976331875478    0.32716460752013   -0.02783146216497
C        -2.96173251763812   -0.42443963657088   -0.02430911739011
H         1.37472678425445    1.00892631071275    1.45787908395792
H         1.57472209878970   -0.74064490155423    1.50168279055503
H         1.70689459521677    1.04183599450666   -0.97479567602539
H        -0.57584184865801    1.96930993319531    0.12413787815409
H        -0.29287256145733   -2.19414994718152    1.04048018965072
H        -2.65768614106794   -2.47880073719055    0.45984376666225
H         1.22402376078501   -1.71750249840797   -0.76809754246558
H         2.91233952404207   -1.45000878826749   -1.05124191368544
H        -2.68824325072486    2.75694429415921   -0.78747952955246
H        -4.04381590220089    1.71470781601276   -0.88380540554907
H        -4.59057567716585   -1.44242885063104   -0.22599038530708
H         1.71973750467755   -0.92806930043672   -2.16002436122789
 
 Bond Distances (Angstroems)
 ---------------------------
O1-C13=1.2321        O2-C14=1.3726        O2-H25=0.9672        O3-C13=1.2513        N4-C7=1.4773         N4-H21=1.0246        
N4-H22=1.0694        N4-H26=1.0212        N5-C11=1.3716        N5-H23=1.0048        N5-H24=1.0063        C6-C7=1.5303         
C6-C8=1.5048         C6-H15=1.0910        C6-H16=1.0920        C7-N4=1.4773         C7-C6=1.5303         C7-C13=1.5834        
C7-H17=1.0894        C8-C6=1.5048         C8-C9=1.3890         C8-C10=1.3864        C9-C8=1.3890         C9-C11=1.3905        
C9-H18=1.0802        C10-C8=1.3864        C10-C12=1.3896       C10-H19=1.0799       C11-N5=1.3716        C11-C9=1.3905        
C11-C14=1.4109       C12-C10=1.3896       C12-C14=1.3793       C12-H20=1.0805       C13-O1=1.2321        C13-O3=1.2513        
C13-C7=1.5834        C14-O2=1.3726        C14-C11=1.4109       C14-C12=1.3793       H15-C6=1.0910        H16-C6=1.0920        
H17-C7=1.0894        H18-C9=1.0802        H19-C10=1.0799       H20-C12=1.0805       H21-N4=1.0246        H22-N4=1.0694        
H23-N5=1.0048        H24-N5=1.0063        H25-O2=0.9672        H26-N4=1.0212        
 C  H  Rav=1.0855 sigma=0.0053  Rmin=1.0799  Rmax=1.0920     6
 C  C  Rav=1.4405 sigma=0.0730  Rmin=1.3793  Rmax=1.5834     9
 N  H  Rav=1.0252 sigma=0.0234  Rmin=1.0048  Rmax=1.0694     5
 N  C  Rav=1.4244 sigma=0.0528  Rmin=1.3716  Rmax=1.4773     2
 O  H  Rav=0.9672 sigma=0.0000  Rmin=0.9672  Rmax=0.9672     1
 O  C  Rav=1.2853 sigma=0.0622  Rmin=1.2321  Rmax=1.3726     3
 
 selected bond angles (degree)
 --------------------
H25-O2-C14=110.06              H21-N4-C7=111.65               H22-N4-C7=100.03               H22-N4-H21=111.66              
H26-N4-C7=113.49               H26-N4-H21=109.94              H26-N4-H22=109.74              H23-N5-C11=117.20              
H24-N5-C11=115.71              H24-N5-H23=116.77              C8-C6-C7=111.20                H15-C6-C7=107.42               
H15-C6-C8=110.94               H16-C6-C7=108.98               H16-C6-C8=110.57               H16-C6-H15=107.59              
C6-C7-N4=111.10                C13-C7-N4=105.55               C13-C7-C6=109.15               H17-C7-N4=112.01               
H17-C7-C6=110.11               H17-C7-C13=108.76              C9-C8-C6=120.05                C10-C8-C6=120.77               
C10-C8-C9=119.14               C11-C9-C8=121.67               H18-C9-C8=119.52               H18-C9-C11=118.80              
C12-C10-C8=120.21              H19-C10-C8=120.58              H19-C10-C12=119.17             
 
 selected dihedral angles (degree)
 ---------------------------------
C6-C7-N4-H21=  7.76           C6-C7-N4-H22=249.51           C6-C7-N4-H26=132.70           C13-C7-N4-H21=125.95          
C13-C7-N4-H22=  7.69          C13-C7-N4-H26=250.89          H17-C7-N4-H21=244.15          H17-C7-N4-H22=125.90          
H17-C7-N4-H26=  9.09          N4-C7-C6-C8=297.39            N4-C7-C6-H15=175.81           N4-C7-C6-H16= 59.52           
C13-C7-C6-C8=181.40           C13-C7-C6-H15= 59.82          C13-C7-C6-H16=303.53          H17-C7-C6-C8= 62.08           
H17-C7-C6-H15=300.50          H17-C7-C6-H16=184.21          C9-C8-C6-C7=283.10            C9-C8-C6-H15= 42.60           
C9-C8-C6-H16=161.89           C10-C8-C6-C7=100.63           C10-C8-C6-H15=220.13          C10-C8-C6-H16=339.42          
C11-C9-C8-C6=178.35           C11-C9-C8-C10=  0.78          H18-C9-C8-C6=357.22           H18-C9-C8-C10=179.66          
C12-C10-C8-C6=181.93          C12-C10-C8-C9=359.48          H19-C10-C8-C6=  4.22          H19-C10-C8-C9=181.77          
           -------------------------------------------------
          |                Final Singlepoint                |
           -------------------------------------------------

          ...................................................
          :                      SETUP                      :
          :.................................................:
          :  # basis functions                  68          :
          :  # atomic orbitals                  68          :
          :  # shells                           40          :
          :  # electrons                        76          :
          :  max. iterations                   250          :
          :  Hamiltonian                  GFN2-xTB          :
          :  restarted?                      false          :
          :  GBSA solvation                   true          :
          :  PC potential                    false          :
          :  electronic temp.          300.0000000     K    :
          :  accuracy                    1.0000000          :
          :  -> integral cutoff          0.2500000E+02      :
          :  -> integral neglect         0.1000000E-07      :
          :  -> SCF convergence          0.1000000E-05 Eh   :
          :  -> wf. convergence          0.1000000E-03 e    :
          :  Broyden damping             0.4000000          :
          ...................................................

 iter      E             dE          RMSdq      gap      omega  full diag
   1    -44.0014287 -0.440014E+02  0.646E-05    3.70       0.0  T
   2    -44.0014287 -0.967759E-11  0.392E-05    3.70     500.0  T
   3    -44.0014287 -0.710543E-12  0.239E-05    3.70     819.9  T

   *** convergence criteria satisfied after 3 iterations ***

         #    Occupation            Energy/Eh            Energy/eV
      -------------------------------------------------------------
         1        2.0000           -0.7022472             -19.1091
       ...           ...                  ...                  ...
        32        2.0000           -0.4323677             -11.7653
        33        2.0000           -0.4233247             -11.5193
        34        2.0000           -0.4182262             -11.3805
        35        2.0000           -0.4073283             -11.0840
        36        2.0000           -0.3871921             -10.5360
        37        2.0000           -0.3778988             -10.2831
        38        2.0000           -0.3481419              -9.4734 (HOMO)
        39                         -0.2122442              -5.7755 (LUMO)
        40                         -0.2043801              -5.5615
        41                         -0.1874700              -5.1013
        42                         -0.0821112              -2.2344
        43                         -0.0315075              -0.8574
       ...                                ...                  ...
        68                          0.6690236              18.2051
      -------------------------------------------------------------
                  HL-Gap            0.1358977 Eh            3.6980 eV
             Fermi-level           -0.2801930 Eh           -7.6244 eV

 SCC (total)                   0 d,  0 h,  0 min,  0.017 sec
 SCC setup                      ...        0 min,  0.001 sec (  3.051%)
 Dispersion                     ...        0 min,  0.000 sec (  0.461%)
 classical contributions        ...        0 min,  0.000 sec (  0.155%)
 integral evaluation            ...        0 min,  0.003 sec ( 16.148%)
 iterations                     ...        0 min,  0.003 sec ( 19.156%)
 molecular gradient             ...        0 min,  0.010 sec ( 59.420%)
 printout                       ...        0 min,  0.000 sec (  1.483%)

         :::::::::::::::::::::::::::::::::::::::::::::::::::::
         ::                     SUMMARY                     ::
         :::::::::::::::::::::::::::::::::::::::::::::::::::::
         :: total energy             -43.460822128470 Eh    ::
         :: total w/o Gsasa/hb       -43.446788069697 Eh    ::
         :: gradient norm              0.000593502050 Eh/a0 ::
         :: HOMO-LUMO gap              3.697965523670 eV    ::
         ::.................................................::
         :: SCC energy               -44.001428744289 Eh    ::
         :: -> isotropic ES            0.197870200940 Eh    ::
         :: -> anisotropic ES         -0.009150794886 Eh    ::
         :: -> anisotropic XC          0.011713318163 Eh    ::
         :: -> dispersion             -0.023037003260 Eh    ::
         :: -> Gsolv                  -0.073580069291 Eh    ::
         ::    -> Gelec               -0.059546010518 Eh    ::
         ::    -> Gsasa                0.002682366139 Eh    ::
         ::    -> Ghb                 -0.017797184611 Eh    ::
         ::    -> Gshift               0.001080759698 Eh    ::
         :: repulsion energy           0.540515603941 Eh    ::
         :: add. restraining           0.000000000000 Eh    ::
         :: total charge              -0.000000000000 e     ::
         :::::::::::::::::::::::::::::::::::::::::::::::::::::

           ------------------------------------------------- 
          |                Numerical Hessian                |
           ------------------------------------------------- 
step length          :   0.00500
SCC accuracy         :   0.30000
Hessian scale factor :   1.00000
frozen atoms in %    :   0.00000    0
RMS gradient         :   0.00059
estimated CPU  time      0.04 min
estimated wall time      0.04 min

writing file <hessian>.

 projected vibrational frequencies (cm⁻¹)
eigval :       -0.00    -0.00    -0.00     0.00     0.00     0.00
eigval :       32.15    40.07    54.30    79.00   144.34   164.10
eigval :      215.88   276.75   296.80   322.03   341.28   353.64
eigval :      361.40   376.98   406.36   431.76   440.40   464.32
eigval :      494.46   531.16   558.59   596.32   656.95   673.84
eigval :      701.00   760.22   794.09   812.35   850.35   861.43
eigval :      887.96   896.56   929.47   973.64  1014.37  1027.18
eigval :     1056.30  1097.55  1113.39  1149.62  1159.08  1185.70
eigval :     1193.26  1210.28  1250.19  1270.50  1288.87  1307.53
eigval :     1318.18  1325.27  1382.33  1393.11  1399.90  1431.78
eigval :     1465.11  1478.69  1519.11  1583.98  1597.99  1727.40
eigval :     2590.17  2980.01  3003.15  3013.35  3067.03  3076.45
eigval :     3081.79  3261.19  3323.92  3476.17  3491.65  3540.34
           -------------------------------------------------
          |                Property Printout                |
           -------------------------------------------------

    * Orbital Energies and Occupations

         #    Occupation            Energy/Eh            Energy/eV
      -------------------------------------------------------------
         1        2.0000           -0.7022472             -19.1091
       ...           ...                  ...                  ...
        26        2.0000           -0.4851675             -13.2021
        27        2.0000           -0.4755932             -12.9416
        28        2.0000           -0.4724415             -12.8558
        29        2.0000           -0.4600248             -12.5179
        30        2.0000           -0.4489489             -12.2165
        31        2.0000           -0.4371754             -11.8961
        32        2.0000           -0.4323676             -11.7653
        33        2.0000           -0.4233247             -11.5193
        34        2.0000           -0.4182261             -11.3805
        35        2.0000           -0.4073282             -11.0840
        36        2.0000           -0.3871920             -10.5360
        37        2.0000           -0.3778987             -10.2831
        38        2.0000           -0.3481419              -9.4734 (HOMO)
        39                         -0.2122442              -5.7755 (LUMO)
        40                         -0.2043801              -5.5615
        41                         -0.1874699              -5.1013
        42                         -0.0821112              -2.2344
        43                         -0.0315075              -0.8574
        44                          0.0428417               1.1658
        45                          0.0490385               1.3344
        46                          0.0637864               1.7357
        47                          0.0733842               1.9969
        48                          0.0959231               2.6102
        49                          0.1181422               3.2148
       ...                                ...                  ...
        68                          0.6690236              18.2051
      -------------------------------------------------------------
                  HL-Gap            0.1358978 Eh            3.6980 eV
             Fermi-level           -0.2801930 Eh           -7.6244 eV

     #   Z          covCN         q      C6AA      α(0)
     1   8 O        0.856    -0.609    26.353     6.883
     2   8 O        1.658    -0.469    22.228     6.365
     3   8 O        0.857    -0.608    26.325     6.879
     4   7 N        3.484    -0.185    25.007     7.427
     5   7 N        2.641    -0.307    27.905     7.846
     6   6 C        3.810    -0.071    21.850     6.654
     7   6 C        3.777    -0.013    20.836     6.503
     8   6 C        2.968    -0.006    28.172     8.706
     9   6 C        2.928    -0.082    30.061     8.992
    10   6 C        2.923    -0.072    29.804     8.953
    11   6 C        2.895     0.062    26.619     8.459
    12   6 C        2.915    -0.081    30.031     8.986
    13   6 C        2.684     0.366    20.789     7.462
    14   6 C        2.850     0.110    25.561     8.286
    15   1 H        0.924     0.060     2.204     2.322
    16   1 H        0.924     0.053     2.286     2.365
    17   1 H        0.925     0.080     1.976     2.198
    18   1 H        0.926     0.032     2.555     2.500
    19   1 H        0.926     0.036     2.506     2.476
    20   1 H        0.926     0.038     2.480     2.463
    21   1 H        0.859     0.288     0.752     1.358
    22   1 H        0.854     0.311     0.683     1.295
    23   1 H        0.860     0.199     1.111     1.651
    24   1 H        0.860     0.205     1.082     1.629
    25   1 H        0.805     0.364     0.558     1.173
    26   1 H        0.860     0.303     0.703     1.314

 Mol. C6AA /au·bohr⁶  :       7278.062927
 Mol. C8AA /au·bohr⁸  :     168993.084423
 Mol. α(0) /au        :        131.142095


Wiberg/Mayer (AO) data.
largest (>0.10) Wiberg bond orders for each atom

 ---------------------------------------------------------------------------
     #   Z sym  total        # sym  WBO       # sym  WBO       # sym  WBO
 ---------------------------------------------------------------------------
     1   8 O    1.856 --    13 C    1.555     3 O    0.215
     2   8 O    2.053 --    14 C    1.048    25 H    0.848
     3   8 O    1.878 --    13 C    1.467     1 O    0.215
     4   7 N    3.632 --     7 C    0.969    26 H    0.897    21 H    0.893
                            22 H    0.802
     5   7 N    3.270 --    11 C    1.186    23 H    0.941    24 H    0.938
     6   6 C    3.988 --     8 C    1.005     7 C    0.978    16 H    0.972
                            15 H    0.963
     7   6 C    3.935 --     6 C    0.978     4 N    0.969    17 H    0.960
                            13 C    0.878
     8   6 C    3.987 --    10 C    1.418     9 C    1.402     6 C    1.005
     9   6 C    3.983 --     8 C    1.402    11 C    1.371    18 H    0.967
    10   6 C    3.985 --     8 C    1.418    12 C    1.398    19 H    0.967
    11   6 C    3.976 --     9 C    1.371    14 C    1.260     5 N    1.186
    12   6 C    3.986 --    14 C    1.429    10 C    1.398    20 H    0.966
    13   6 C    3.932 --     1 O    1.555     3 O    1.467     7 C    0.878
    14   6 C    3.932 --    12 C    1.429    11 C    1.260     2 O    1.048
    15   1 H    0.996 --     6 C    0.963
    16   1 H    0.997 --     6 C    0.972
    17   1 H    0.994 --     7 C    0.960
    18   1 H    0.999 --     9 C    0.967
    19   1 H    0.999 --    10 C    0.967
    20   1 H    0.998 --    12 C    0.966
    21   1 H    0.917 --     4 N    0.893
    22   1 H    0.903 --     4 N    0.802
    23   1 H    0.960 --     5 N    0.941
    24   1 H    0.958 --     5 N    0.938
    25   1 H    0.868 --     2 O    0.848
    26   1 H    0.908 --     4 N    0.897
 ---------------------------------------------------------------------------

Topologies differ in total number of bonds
Writing topology from bond orders to xtbtopo.mol

molecular dipole:
                 x           y           z       tot (Debye)
 q only:       -4.481      -2.209      -2.345
   full:       -4.617      -2.353      -2.514      14.639
molecular quadrupole (traceless):
                xx          xy          yy          xz          yz          zz
 q only:      -43.526     -14.341      22.483      -9.698       0.654      21.043
  q+dip:      -45.441     -11.406      25.109      -7.916      -2.748      20.333
   full:      -46.246     -11.378      23.951      -8.735      -2.116      22.295

           -------------------------------------------------
          |                Geometry Summary                 |
           -------------------------------------------------

      molecular mass/u    :      196.2035333
   center of mass at/Å    :        0.0240175       0.0054418      -0.0075948
  moments of inertia/u·Å² :        0.2889401E+03   0.1630301E+04   0.1781264E+04
rotational constants/cm⁻¹ :        0.5834300E-01   0.1034019E-01   0.9463860E-02

 * 23 selected distances

     #   Z          #   Z                                           value/Å
     4   7 N        7   6 C                                       1.4772620
     6   6 C        7   6 C                                       1.5303387 (max)
     8   6 C        9   6 C                                       1.3889570
     8   6 C       10   6 C                                       1.3863560
     5   7 N       11   6 C                                       1.3716189
     9   6 C       11   6 C                                       1.3905049
    10   6 C       12   6 C                                       1.3896335
     1   8 O       13   6 C                                       1.2320941
     2   8 O       14   6 C                                       1.3726002
    11   6 C       14   6 C                                       1.4108502
    12   6 C       14   6 C                                       1.3792525
     6   6 C       15   1 H                                       1.0910006
     6   6 C       16   1 H                                       1.0919724
     7   6 C       17   1 H                                       1.0893884
     9   6 C       18   1 H                                       1.0802107
    10   6 C       19   1 H                                       1.0798788
    12   6 C       20   1 H                                       1.0805138
     4   7 N       21   1 H                                       1.0246366
     4   7 N       22   1 H                                       1.0693610
     5   7 N       23   1 H                                       1.0047986
     5   7 N       24   1 H                                       1.0062618
     2   8 O       25   1 H                                       0.9671863 (min)
     4   7 N       26   1 H                                       1.0211604

 * 6 distinct bonds (by element types)

   Z      Z             #   av. dist./Å        max./Å        min./Å
   1 H    6 C           6     1.0854941     1.0919724     1.0798788
   6 C    6 C           7     1.4108418     1.5303387     1.3792525
   1 H    7 N           5     1.0252437     1.0693610     1.0047986
   6 C    7 N           2     1.4244404     1.4772620     1.3716189
   1 H    8 O           1     0.9671863     0.9671863     0.9671863
   6 C    8 O           2     1.3023472     1.3726002     1.2320941

           -------------------------------------------------
          |               Frequency Printout                |
           -------------------------------------------------
 projected vibrational frequencies (cm⁻¹)
eigval :       -0.00    -0.00    -0.00     0.00     0.00     0.00
eigval :       32.15    40.07    54.30    79.00   144.34   164.10
eigval :      215.88   276.75   296.80   322.03   341.28   353.64
eigval :      361.40   376.98   406.36   431.76   440.40   464.32
eigval :      494.46   531.16   558.59   596.32   656.95   673.84
eigval :      701.00   760.22   794.09   812.35   850.35   861.43
eigval :      887.96   896.56   929.47   973.64  1014.37  1027.18
eigval :     1056.30  1097.55  1113.39  1149.62  1159.08  1185.70
eigval :     1193.26  1210.28  1250.19  1270.50  1288.87  1307.53
eigval :     1318.18  1325.27  1382.33  1393.11  1399.90  1431.78
eigval :     1465.11  1478.69  1519.11  1583.98  1597.99  1727.40
eigval :     2590.17  2980.01  3003.15  3013.35  3067.03  3076.45
eigval :     3081.79  3261.19  3323.92  3476.17  3491.65  3540.34
 reduced masses (amu)
   1: 12.22   2: 12.86   3: 13.01   4: 12.36   5: 13.67   6: 12.31   7: 12.75   8: 12.85
   9: 12.90  10: 12.30  11: 12.07  12: 13.30  13: 10.78  14: 10.14  15: 11.68  16:  3.60
  17:  4.66  18: 10.57  19:  5.67  20:  4.89  21:  9.18  22:  8.48  23:  9.83  24:  5.75
  25: 10.95  26: 12.10  27: 10.86  28: 11.60  29: 12.13  30: 11.50  31: 12.43  32: 11.89
  33: 11.53  34:  4.06  35:  9.30  36:  4.16  37:  3.35  38:  6.91  39:  5.26  40:  8.16
  41:  4.49  42:  5.25  43:  6.00  44:  6.34  45:  7.91  46:  6.24  47:  3.24  48:  5.70
  49:  4.32  50:  7.32  51:  4.18  52:  3.65  53:  7.98  54:  7.77  55:  6.52  56:  9.21
  57: 10.17  58:  1.98  59:  1.90  60:  6.07  61:  7.77  62:  2.12  63: 10.79  64: 11.51
  65: 11.57  66: 12.93  67:  1.83  68:  1.84  69:  1.62  70:  1.79  71:  1.78  72:  1.83
  73:  1.87  74:  1.80  75:  1.80  76:  1.45  77:  1.87  78:  2.17
 IR intensities (km·mol⁻¹)
   1:  4.56   2:  1.65   3:  4.33   4:  0.27   5:  6.13   6:  2.93   7: 20.01   8: 18.52
   9: 10.53  10:  4.67  11: 23.39  12: 10.52  13: 14.90  14: 15.32  15:  9.55  16: 28.64
  17:107.97  18:116.45  19: 84.92  20: 76.06  21: 29.98  22: 15.22  23: 42.54  24:417.80
  25: 37.88  26: 48.96  27:  9.43  28:  1.71  29: 24.44  30: 15.75  31: 11.06  32: 85.25
  33: 23.88  34: 35.21  35:204.03  36: 37.77  37:  0.37  38: 19.03  39: 51.74  40: 20.56
  41:125.07  42:  1.30  43: 22.31  44:355.82  45: 40.32  46: 11.81  47: 48.88  48: 36.99
  49: 28.70  50:143.64  51:217.38  52: 37.23  53:214.30  54:238.93  55:307.22  56:366.19
  57: 54.30  58:148.26  59: 97.88  60:  7.75  61: 85.72  62:  0.19  63:445.50  64:  5.85
  65:173.42  66:783.73  67:766.75  68: 40.26  69: 32.41  70: 28.86  71: 43.76  72:186.17
  73: 28.75  74:153.40  75:129.24  76: 43.44  77:138.36  78: 23.78
 Raman intensities (amu)
   1:  0.00   2:  0.00   3:  0.00   4:  0.00   5:  0.00   6:  0.00   7:  0.00   8:  0.00
   9:  0.00  10:  0.00  11:  0.00  12:  0.00  13:  0.00  14:  0.00  15:  0.00  16:  0.00
  17:  0.00  18:  0.00  19:  0.00  20:  0.00  21:  0.00  22:  0.00  23:  0.00  24:  0.00
  25:  0.00  26:  0.00  27:  0.00  28:  0.00  29:  0.00  30:  0.00  31:  0.00  32:  0.00
  33:  0.00  34:  0.00  35:  0.00  36:  0.00  37:  0.00  38:  0.00  39:  0.00  40:  0.00
  41:  0.00  42:  0.00  43:  0.00  44:  0.00  45:  0.00  46:  0.00  47:  0.00  48:  0.00
  49:  0.00  50:  0.00  51:  0.00  52:  0.00  53:  0.00  54:  0.00  55:  0.00  56:  0.00
  57:  0.00  58:  0.00  59:  0.00  60:  0.00  61:  0.00  62:  0.00  63:  0.00  64:  0.00
  65:  0.00  66:  0.00  67:  0.00  68:  0.00  69:  0.00  70:  0.00  71:  0.00  72:  0.00
  73:  0.00  74:  0.00  75:  0.00  76:  0.00  77:  0.00  78:  0.00
 output can be read by thermo (or use thermo option).
 writing <g98.out> molden fake output.
 recommended (thermochemical) frequency scaling factor: 1.0
           -------------------------------------------------
          |             Thermodynamic Functions             |
           -------------------------------------------------

Molecule has no symmetry elements
It seems to be the C1 point group
c1  symmetry found (for desy threshold:  0.10E+00) used in thermo

          ...................................................
          :                      SETUP                      :
          :.................................................:
          :  # frequencies                          72      :
          :  # imaginary freq.                       0      :
          :  linear?                             false      :
          :  only rotor calc.                    false      :
          :  symmetry                               c1      :
          :  rotational number                       1      :
          :  scaling factor                  1.0000000      :
          :  rotor cutoff                   50.0000000 cm⁻¹ :
          :  imag. cutoff                  -20.0000000 cm⁻¹ :
          :.................................................:

    mode    ω/cm⁻¹     T·S(HO)/kcal·mol⁻¹    T·S(FR)/kcal·mol⁻¹   T·S(vib)
   ------------------------------------------------------------------------
       1     32.15    -1.69715 ( 14.60%)    -1.18727 ( 85.40%)    -1.26169
       2     40.07    -1.56692 ( 29.21%)    -1.12201 ( 70.79%)    -1.25196
       3     54.30    -1.38767 ( 58.18%)    -1.03203 ( 41.82%)    -1.23893
       4     79.00    -1.16743 ( 86.17%)    -0.92099 ( 13.83%)    -1.13335
       5    144.34    -0.81860 ( 98.58%)    -0.74247 (  1.42%)    -0.81752
       6    164.10    -0.74595 ( 99.15%)    -0.70445 (  0.85%)    -0.74560
       7    215.88    -0.59432 ( 99.71%)    -0.62322 (  0.29%)    -0.59441
       8    276.75    -0.46323 ( 99.89%)    -0.54964 (  0.11%)    -0.46332
       9    296.80    -0.42781 ( 99.92%)    -0.52892 (  0.08%)    -0.42789
   ------------------------------------------------------------------------

   temp. (K)  partition function   enthalpy   heat capacity  entropy
                                   cal/mol     cal/K/mol   cal/K/mol   J/K/mol
 298.15  VIB  0.482E+05             6903.348     46.983     41.449
         ROT  0.221E+07              888.752      2.981     32.014
         INT  0.107E+12             7792.100     49.964     73.463
         TR   0.266E+28             1481.254      4.968     41.708
         TOT                        9273.3541    54.9318   115.1713   481.8769

       T/K    H(0)-H(T)+PV         H(T)/Eh          T*S/Eh         G(T)/Eh
   ------------------------------------------------------------------------
    298.15    0.147780E-01    0.216696E+00    0.547216E-01    0.161975E+00
   ------------------------------------------------------------------------

         :::::::::::::::::::::::::::::::::::::::::::::::::::::
         ::                  THERMODYNAMIC                  ::
         :::::::::::::::::::::::::::::::::::::::::::::::::::::
         :: total free energy         -43.298847471225 Eh   ::
         ::.................................................::
         :: total energy              -43.460822132658 Eh   ::
         :: zero point energy           0.201918253308 Eh   ::
         :: G(RRHO) w/o ZPVE           -0.039943591875 Eh   ::
         :: G(RRHO) contrib.            0.161974661433 Eh   ::
         :::::::::::::::::::::::::::::::::::::::::::::::::::::

optimized geometry written to: xtbopt.xyz


           -------------------------------------------------
          | TOTAL ENERGY              -43.460822132658 Eh   |
          | TOTAL ENTHALPY            -43.244125848985 Eh   |
          | TOTAL FREE ENERGY         -43.298847471225 Eh   |
          | GRADIENT NORM               0.000593493341 Eh/α |
          | HOMO-LUMO GAP               3.697966430528 eV   |
           -------------------------------------------------

------------------------------------------------------------------------
 * finished run on 2021/11/15 at 09:36:26.833     
------------------------------------------------------------------------
 total:
 * wall-time:     0 d,  0 h,  0 min,  2.607 sec
 *  cpu-time:     0 d,  0 h,  0 min,  2.562 sec
 * ratio c/w:     0.983 speedup
 SCF:
 * wall-time:     0 d,  0 h,  0 min,  0.022 sec
 *  cpu-time:     0 d,  0 h,  0 min,  0.031 sec
 * ratio c/w:     1.408 speedup
 ANC optimizer:
 * wall-time:     0 d,  0 h,  0 min,  0.218 sec
 *  cpu-time:     0 d,  0 h,  0 min,  0.219 sec
 * ratio c/w:     1.002 speedup
 analytical hessian:
 * wall-time:     0 d,  0 h,  0 min,  2.323 sec
 *  cpu-time:     0 d,  0 h,  0 min,  2.281 sec
 * ratio c/w:     0.982 speedup

