 Entering Gaussian System
 *********************************************
 Gaussian 98:
 frequency output generated by the xtb code
 *********************************************
                         Standard orientation:
 --------------------------------------------------------------------
  Center     Atomic     Atomic              Coordinates (Angstroms)
  Number     Number      Type              X           Y           Z
 --------------------------------------------------------------------
    1          8             0        3.909630    1.367509    0.525507
    2          8             0       -4.289537   -0.532357   -0.354939
    3          8             0        4.234122   -0.670076   -0.348882
    4          7             0        1.916753   -1.077978   -1.169332
    5          7             0       -3.158979    1.932989   -0.457181
    6          6             0        1.199521    0.088731    0.898559
    7          6             0        2.016473    0.174650   -0.392620
    8          6             0       -0.265306   -0.091518    0.604852
    9          6             0       -1.029862    0.991379    0.190137
   10          6             0       -0.857833   -1.341728    0.693573
   11          6             0       -2.377935    0.856190   -0.122799
   12          6             0       -2.202325   -1.502094    0.380994
   13          6             0        3.549765    0.327146   -0.027844
   14          6             0       -2.961735   -0.424424   -0.024298
   15          1             0        1.374737    1.008922    1.457873
   16          1             0        1.574723   -0.740651    1.501679
   17          1             0        1.706897    1.041825   -0.974803
   18          1             0       -0.575831    1.969313    0.124136
   19          1             0       -0.292880   -2.194147    1.040485
   20          1             0       -2.657698   -2.478786    0.459857
   21          1             0        1.224012   -1.717510   -0.768099
   22          1             0        2.912328   -1.450026   -1.051250
   23          1             0       -2.688232    2.756957   -0.787475
   24          1             0       -4.043810    1.714727   -0.883794
   25          1             0       -4.590584   -1.442405   -0.225972
   26          1             0        1.719725   -0.928082   -2.160029
 --------------------------------------------------------------------
     1 basis functions        1 primitive gaussians
     1 alpha electrons        1 beta electrons
 
 Harmonic frequencies (cm**-1), IR intensities (km*mol⁻¹),
 Raman scattering activities (A**4/amu), Raman depolarization ratios,
 reduced masses (AMU), force constants (mDyne/A) and normal coordinates:
                      1                      2                      3
                        a                      a                      a 
 Frequencies --    32.1479                40.0731                54.3011
 Red. masses --    12.7453                12.8463                12.9048
 Frc consts  --     0.0000                 0.0000                 0.0000
 IR Inten    --    20.0064                18.5195                10.5324
 Raman Activ --     0.0000                 0.0000                 0.0000
 Depolar     --     0.0000                 0.0000                 0.0000
 Atom AN      X      Y      Z        X      Y      Z        X      Y      Z
   1   8     0.29  -0.14  -0.16    -0.14   0.29  -0.40     0.06  -0.02   0.16
   2   8     0.11  -0.22  -0.12    -0.01   0.07  -0.09    -0.20   0.03   0.47
   3   8    -0.22  -0.38   0.21     0.07   0.01   0.34     0.07  -0.12   0.38
   4   7    -0.24   0.17   0.02     0.16  -0.35   0.19     0.22   0.09  -0.19
   5   7    -0.19  -0.07   0.12    -0.06   0.11   0.33    -0.13  -0.02   0.01
   6   6     0.01   0.28   0.02    -0.00  -0.03  -0.05    -0.01   0.02  -0.23
   7   6     0.00   0.16  -0.00     0.01  -0.17  -0.05     0.13   0.06  -0.13
   8   6     0.02   0.18   0.02    -0.00  -0.02  -0.04     0.00  -0.00  -0.27
   9   6    -0.08   0.13   0.08    -0.02   0.03   0.12    -0.04  -0.01  -0.24
  10   6     0.15   0.11  -0.07     0.01  -0.03  -0.20     0.01  -0.00  -0.21
  11   6    -0.07   0.00   0.05    -0.03   0.06   0.12    -0.08  -0.02  -0.05
  12   6     0.18  -0.02  -0.11     0.01  -0.01  -0.22    -0.03  -0.00  -0.02
  13   6     0.03  -0.12   0.01    -0.02   0.05  -0.04     0.08  -0.03   0.13
  14   6     0.07  -0.07  -0.06    -0.01   0.03  -0.06    -0.09   0.00   0.11
  15   1    -0.01   0.10  -0.02     0.00   0.01  -0.04    -0.02   0.00  -0.06
  16   1     0.01   0.10   0.03    -0.01   0.01   0.01    -0.01   0.01  -0.06
  17   1     0.04   0.06  -0.00    -0.02  -0.09  -0.06     0.07   0.03  -0.04
  18   1    -0.05   0.05   0.04    -0.01   0.01   0.07    -0.01  -0.00  -0.09
  19   1     0.07   0.04  -0.03     0.00  -0.02  -0.09     0.02  -0.00  -0.08
  20   1     0.08  -0.02  -0.05     0.01  -0.01  -0.10    -0.01   0.00   0.02
  21   1    -0.13   0.11  -0.02     0.03  -0.08   0.06     0.01   0.04  -0.10
  22   1    -0.10  -0.03   0.05     0.04  -0.08   0.11     0.04  -0.00   0.01
  23   1    -0.08   0.01   0.06    -0.02   0.04   0.12    -0.05  -0.01  -0.03
  24   1    -0.04  -0.04   0.03    -0.02   0.04   0.08    -0.05  -0.01   0.05
  25   1     0.06  -0.07  -0.05     0.00   0.01  -0.06    -0.06   0.02   0.17
  26   1    -0.01   0.06  -0.00     0.08  -0.15   0.03     0.13   0.04  -0.06
                      4                      5                      6
                        a                      a                      a 
 Frequencies --    78.9991               144.3356               164.1044
 Red. masses --    12.3040                12.0721                13.2987
 Frc consts  --     0.0000                 0.0000                 0.0000
 IR Inten    --     4.6729                23.3874                10.5196
 Raman Activ --     0.0000                 0.0000                 0.0000
 Depolar     --     0.0000                 0.0000                 0.0000
 Atom AN      X      Y      Z        X      Y      Z        X      Y      Z
   1   8    -0.03  -0.25   0.36    -0.18  -0.05   0.12     0.53   0.06  -0.23
   2   8    -0.02  -0.11   0.01     0.13  -0.12  -0.41    -0.17  -0.01  -0.20
   3   8     0.21   0.11  -0.37     0.02  -0.05   0.18     0.20  -0.01  -0.13
   4   7     0.11  -0.29   0.20     0.16  -0.01  -0.31     0.18   0.12   0.10
   5   7    -0.25   0.00   0.12    -0.09   0.04   0.24    -0.17   0.00   0.13
   6   6    -0.03   0.24  -0.07     0.06  -0.03  -0.24    -0.07  -0.09   0.08
   7   6     0.07  -0.13  -0.03     0.03  -0.02  -0.25     0.15   0.04   0.22
   8   6    -0.02   0.19  -0.08     0.01   0.04  -0.01    -0.10  -0.06  -0.05
   9   6    -0.11   0.14  -0.04    -0.00   0.03  -0.03    -0.10  -0.07  -0.10
  10   6     0.06   0.15  -0.08    -0.07   0.10   0.34    -0.21  -0.00   0.11
  11   6    -0.12   0.05   0.01    -0.03   0.03   0.09    -0.14  -0.03  -0.01
  12   6     0.07   0.05  -0.07    -0.06   0.08   0.34    -0.21   0.01   0.10
  13   6     0.07  -0.08  -0.00    -0.03  -0.03   0.00     0.25   0.01   0.01
  14   6    -0.02   0.00  -0.02     0.00   0.01   0.04    -0.18  -0.01  -0.03
  15   1    -0.01   0.11  -0.09     0.05  -0.01  -0.07    -0.05  -0.04   0.06
  16   1    -0.03   0.11   0.05     0.02  -0.02  -0.08    -0.05  -0.04   0.02
  17   1     0.05  -0.07  -0.07     0.02  -0.01  -0.07     0.06   0.03   0.07
  18   1    -0.05   0.05  -0.01     0.01   0.00  -0.05    -0.03  -0.02  -0.05
  19   1     0.03   0.05  -0.02    -0.02   0.04   0.14    -0.08  -0.00   0.06
  20   1     0.04   0.00  -0.02    -0.02   0.03   0.13    -0.07   0.01   0.05
  21   1     0.11  -0.10   0.15     0.04  -0.01  -0.11     0.07   0.01   0.02
  22   1     0.07  -0.01  -0.02     0.04  -0.00  -0.05     0.06   0.04   0.00
  23   1    -0.09   0.02   0.03    -0.04   0.01   0.05    -0.05   0.00   0.03
  24   1    -0.07  -0.02   0.04    -0.03   0.01   0.07    -0.05   0.01   0.05
  25   1     0.02  -0.04  -0.00     0.06  -0.04  -0.15    -0.04  -0.00  -0.06
  26   1    -0.07  -0.14   0.07     0.07   0.00  -0.09     0.03   0.05   0.03
                      7                      8                      9
                        a                      a                      a 
 Frequencies --   215.8812               276.7497               296.8001
 Red. masses --    10.7756                10.1431                11.6828
 Frc consts  --     0.0000                 0.0000                 0.0000
 IR Inten    --    14.9043                15.3231                 9.5508
 Raman Activ --     0.0000                 0.0000                 0.0000
 Depolar     --     0.0000                 0.0000                 0.0000
 Atom AN      X      Y      Z        X      Y      Z        X      Y      Z
   1   8     0.06  -0.02  -0.05     0.12  -0.03   0.07    -0.11   0.02  -0.09
   2   8    -0.05  -0.02  -0.01    -0.15  -0.28  -0.04    -0.04  -0.57   0.16
   3   8     0.12  -0.03   0.02    -0.07  -0.01   0.01     0.09  -0.00  -0.01
   4   7     0.21  -0.01  -0.18     0.03  -0.00   0.09     0.01   0.01  -0.12
   5   7    -0.08  -0.09  -0.42     0.44   0.31  -0.01     0.09   0.33   0.02
   6   6     0.02  -0.08  -0.05    -0.04   0.28  -0.16    -0.01  -0.24   0.15
   7   6     0.05  -0.07  -0.06     0.01   0.14  -0.15    -0.01  -0.15   0.16
   8   6    -0.06   0.10   0.17    -0.02  -0.14  -0.03    -0.03   0.17   0.04
   9   6    -0.20   0.16   0.56    -0.10  -0.17   0.13    -0.04   0.10  -0.11
  10   6    -0.00   0.04  -0.12    -0.04  -0.14  -0.04     0.01   0.16   0.03
  11   6    -0.12   0.06   0.20    -0.09  -0.06   0.07    -0.08   0.11  -0.11
  12   6    -0.03   0.04   0.02    -0.09  -0.01   0.06     0.08   0.13  -0.09
  13   6     0.07  -0.04  -0.01     0.01   0.06  -0.03    -0.00  -0.08   0.04
  14   6    -0.08   0.04   0.13    -0.15  -0.03   0.05    -0.02   0.07  -0.09
  15   1     0.06  -0.04  -0.00    -0.09   0.14  -0.12     0.08  -0.12   0.11
  16   1    -0.01  -0.05  -0.04     0.06   0.16   0.02    -0.08  -0.14  -0.01
  17   1     0.02  -0.01  -0.01     0.02   0.01  -0.09    -0.01  -0.01   0.09
  18   1    -0.08   0.06   0.22    -0.03  -0.05   0.05    -0.02   0.03  -0.04
  19   1     0.03  -0.01  -0.13    -0.02  -0.06  -0.04     0.00   0.06   0.03
  20   1     0.01  -0.00  -0.03    -0.03  -0.00   0.02     0.03   0.03  -0.03
  21   1     0.06  -0.03  -0.08     0.04   0.01   0.08    -0.01  -0.02  -0.09
  22   1     0.06   0.01  -0.03     0.02   0.03   0.03    -0.01  -0.01  -0.05
  23   1    -0.00  -0.03  -0.11     0.27   0.02   0.05     0.09   0.07   0.03
  24   1     0.03  -0.08  -0.19     0.12   0.23  -0.08     0.02   0.16  -0.03
  25   1     0.01  -0.02  -0.05     0.01  -0.09  -0.02     0.12  -0.18   0.09
  26   1     0.08   0.02  -0.05    -0.03  -0.07   0.02     0.02   0.08  -0.02
                     10                     11                     12
                        a                      a                      a 
 Frequencies --   322.0337               341.2820               353.6383
 Red. masses --     3.6026                 4.6642                10.5739
 Frc consts  --     0.0000                 0.0000                 0.0000
 IR Inten    --    28.6445               107.9669               116.4458
 Raman Activ --     0.0000                 0.0000                 0.0000
 Depolar     --     0.0000                 0.0000                 0.0000
 Atom AN      X      Y      Z        X      Y      Z        X      Y      Z
   1   8     0.05  -0.00  -0.09    -0.02  -0.03  -0.01    -0.23   0.10  -0.08
   2   8     0.01   0.03   0.07    -0.09   0.06  -0.07    -0.07   0.06  -0.05
   3   8    -0.20  -0.12   0.13     0.05  -0.01  -0.02     0.50   0.03   0.16
   4   7     0.18   0.07  -0.13     0.11  -0.00  -0.11    -0.40   0.06  -0.17
   5   7    -0.02  -0.01   0.02     0.02  -0.07   0.06     0.05  -0.05  -0.01
   6   6    -0.02   0.02   0.02     0.02   0.11   0.02     0.03   0.12   0.01
   7   6    -0.07   0.01  -0.00     0.00  -0.03  -0.04     0.17  -0.11   0.07
   8   6    -0.02   0.01   0.07    -0.02   0.05   0.19     0.03  -0.02  -0.04
   9   6     0.01   0.01  -0.01    -0.06  -0.01   0.12    -0.02  -0.04   0.02
  10   6    -0.01   0.02   0.08    -0.05   0.05   0.21     0.00  -0.01  -0.04
  11   6     0.02  -0.00  -0.04     0.01  -0.10  -0.15    -0.02  -0.05   0.02
  12   6     0.04  -0.02  -0.10     0.02  -0.04  -0.12    -0.04  -0.01   0.05
  13   6    -0.09  -0.01   0.05     0.01  -0.02  -0.02     0.20  -0.16   0.07
  14   6     0.04  -0.01  -0.07     0.01  -0.11  -0.29    -0.06  -0.03   0.02
  15   1     0.00   0.01  -0.00     0.02   0.06  -0.05    -0.02   0.08  -0.06
  16   1     0.00   0.01   0.01     0.02   0.07   0.04     0.00   0.09   0.08
  17   1    -0.02   0.00   0.00     0.00  -0.01  -0.01     0.13   0.01   0.04
  18   1     0.01   0.00  -0.00    -0.04   0.01   0.09    -0.02  -0.01   0.01
  19   1    -0.00   0.01   0.03    -0.03   0.03   0.11    -0.00  -0.01  -0.01
  20   1     0.01  -0.01  -0.04     0.01  -0.01  -0.00    -0.00  -0.00   0.03
  21   1     0.46  -0.24   0.25    -0.03   0.02  -0.11    -0.05   0.01   0.07
  22   1     0.22   0.30  -0.34     0.01  -0.03   0.04    -0.16  -0.07  -0.27
  23   1    -0.01   0.01   0.02     0.01   0.09   0.30     0.02   0.02   0.09
  24   1     0.00  -0.01  -0.01     0.05   0.05  -0.11     0.02   0.02  -0.03
  25   1    -0.01   0.01   0.04    -0.24   0.18   0.63    -0.04   0.02  -0.03
  26   1    -0.45  -0.03   0.06     0.13   0.03  -0.05    -0.34   0.09   0.01
                     13                     14                     15
                        a                      a                      a 
 Frequencies --   361.4015               376.9804               406.3580
 Red. masses --     5.6684                 4.8874                 9.1826
 Frc consts  --     0.0000                 0.0000                 0.0000
 IR Inten    --    84.9229                76.0572                29.9777
 Raman Activ --     0.0000                 0.0000                 0.0000
 Depolar     --     0.0000                 0.0000                 0.0000
 Atom AN      X      Y      Z        X      Y      Z        X      Y      Z
   1   8    -0.02  -0.03  -0.02     0.09   0.02   0.07    -0.16  -0.02  -0.16
   2   8    -0.14   0.15   0.31     0.06  -0.06  -0.01     0.21   0.03  -0.07
   3   8     0.03  -0.01  -0.02    -0.08   0.02   0.03    -0.05  -0.06  -0.13
   4   7     0.11   0.00  -0.09    -0.12  -0.03   0.16     0.23   0.09  -0.12
   5   7     0.03  -0.11  -0.06    -0.07  -0.13  -0.10    -0.02   0.03  -0.01
   6   6    -0.00   0.12   0.03     0.03  -0.20  -0.10    -0.23   0.20   0.18
   7   6    -0.01  -0.03  -0.02     0.01   0.08  -0.05    -0.06  -0.15   0.27
   8   6    -0.03   0.03   0.19     0.04  -0.01  -0.22    -0.08  -0.07  -0.15
   9   6    -0.00  -0.04  -0.05     0.01   0.08   0.03    -0.00   0.00  -0.07
  10   6    -0.07   0.05   0.23     0.05   0.00  -0.18     0.10  -0.14  -0.21
  11   6     0.00  -0.06  -0.07     0.02   0.04  -0.06     0.01   0.06  -0.02
  12   6     0.02  -0.05  -0.19    -0.05   0.08   0.24    -0.01  -0.01   0.24
  13   6    -0.00  -0.03  -0.01     0.00   0.08  -0.01    -0.11  -0.14   0.10
  14   6    -0.01  -0.06  -0.14     0.04   0.03   0.00     0.10   0.04   0.16
  15   1     0.01   0.07  -0.05     0.03  -0.13   0.09    -0.15   0.16  -0.09
  16   1     0.02   0.07   0.05    -0.02  -0.14  -0.13    -0.08   0.17   0.21
  17   1     0.00  -0.01  -0.01    -0.02   0.01  -0.02     0.01  -0.02   0.09
  18   1     0.00  -0.01  -0.04    -0.00   0.03   0.06     0.02  -0.01   0.01
  19   1    -0.03   0.02   0.11     0.02  -0.00  -0.06     0.06  -0.03  -0.10
  20   1     0.02  -0.03  -0.09    -0.04   0.04   0.16    -0.04   0.02   0.12
  21   1    -0.02   0.01  -0.10     0.01   0.01   0.14     0.06  -0.06  -0.17
  22   1     0.02  -0.02   0.04    -0.02   0.01   0.00     0.09   0.06  -0.00
  23   1    -0.01   0.13   0.38    -0.06   0.24   0.61    -0.00   0.07   0.16
  24   1     0.05   0.05  -0.13     0.09   0.05  -0.27     0.04   0.03  -0.10
  25   1     0.14  -0.12  -0.59     0.03  -0.02   0.03     0.03   0.02   0.02
  26   1     0.12   0.03  -0.04    -0.12  -0.08   0.05     0.15   0.14  -0.03
                     16                     17                     18
                        a                      a                      a 
 Frequencies --   431.7592               440.3993               464.3199
 Red. masses --     8.4830                 9.8322                 5.7476
 Frc consts  --     0.0000                 0.0000                 0.0000
 IR Inten    --    15.2194                42.5390               417.7978
 Raman Activ --     0.0000                 0.0000                 0.0000
 Depolar     --     0.0000                 0.0000                 0.0000
 Atom AN      X      Y      Z        X      Y      Z        X      Y      Z
   1   8    -0.04  -0.00  -0.01     0.11   0.02   0.03    -0.04   0.00  -0.01
   2   8    -0.07   0.06  -0.22     0.30  -0.07   0.10    -0.03   0.13   0.09
   3   8    -0.05  -0.02  -0.02     0.10   0.06   0.04    -0.01  -0.02  -0.01
   4   7     0.03   0.01   0.02    -0.10  -0.03  -0.02    -0.01   0.01   0.02
   5   7     0.06  -0.07   0.00    -0.32   0.20  -0.03    -0.12   0.14   0.35
   6   6     0.07  -0.03   0.06    -0.13   0.00  -0.13     0.03  -0.03   0.01
   7   6     0.00  -0.01   0.03    -0.01   0.02  -0.07     0.01   0.01   0.02
   8   6     0.05   0.15   0.04    -0.14  -0.23   0.04     0.04   0.08  -0.07
   9   6     0.04  -0.01  -0.31     0.00  -0.10  -0.03    -0.07   0.04   0.06
  10   6     0.04   0.16   0.01    -0.08  -0.25   0.24     0.04   0.07  -0.07
  11   6    -0.11  -0.09   0.37    -0.05   0.27   0.09     0.03  -0.17  -0.20
  12   6     0.09  -0.08  -0.18     0.03  -0.03  -0.20     0.01  -0.05   0.16
  13   6    -0.03  -0.01  -0.01     0.06   0.03   0.02     0.00  -0.01  -0.00
  14   6    -0.19  -0.04   0.42     0.18   0.17   0.06     0.02  -0.14  -0.21
  15   1     0.06  -0.04   0.05    -0.08   0.03  -0.06     0.03  -0.03   0.03
  16   1    -0.01  -0.05  -0.02     0.01   0.04  -0.01    -0.02  -0.04  -0.02
  17   1    -0.01   0.00   0.02     0.02  -0.00  -0.04     0.00   0.01   0.01
  18   1     0.01  -0.01  -0.27     0.10  -0.08  -0.04    -0.08   0.04   0.09
  19   1     0.03   0.05  -0.03    -0.04  -0.07   0.09     0.03   0.04   0.00
  20   1     0.11  -0.07  -0.18    -0.06   0.01  -0.16     0.01  -0.01   0.16
  21   1     0.01  -0.01  -0.01    -0.04   0.02   0.01     0.00  -0.00   0.01
  22   1     0.02   0.02   0.01    -0.05  -0.04  -0.01     0.00   0.00   0.01
  23   1     0.15  -0.05   0.11    -0.05   0.02  -0.05     0.19  -0.21  -0.27
  24   1     0.18  -0.01  -0.34     0.12  -0.09  -0.37     0.29  -0.10  -0.54
  25   1    -0.12   0.07   0.07     0.10  -0.01   0.12    -0.02   0.01  -0.13
  26   1     0.01   0.01   0.00    -0.03  -0.02  -0.01     0.00   0.00   0.01
                     19                     20                     21
                        a                      a                      a 
 Frequencies --   494.4583               531.1610               558.5936
 Red. masses --    10.9460                12.1040                10.8616
 Frc consts  --     0.0000                 0.0000                 0.0000
 IR Inten    --    37.8825                48.9566                 9.4253
 Raman Activ --     0.0000                 0.0000                 0.0000
 Depolar     --     0.0000                 0.0000                 0.0000
 Atom AN      X      Y      Z        X      Y      Z        X      Y      Z
   1   8     0.21   0.04   0.01    -0.47  -0.06  -0.14     0.01  -0.01   0.02
   2   8     0.24   0.17   0.06     0.06   0.05   0.04    -0.00   0.22  -0.06
   3   8     0.04   0.11   0.02     0.12  -0.24  -0.12     0.00   0.00   0.03
   4   7    -0.09  -0.09  -0.06     0.16   0.30   0.32    -0.00  -0.03  -0.02
   5   7     0.23   0.05  -0.03     0.01   0.05  -0.08    -0.18   0.28  -0.11
   6   6    -0.33  -0.09  -0.17    -0.02  -0.03  -0.12     0.13  -0.05   0.08
   7   6    -0.08  -0.07   0.01     0.17   0.25   0.03    -0.01  -0.01  -0.02
   8   6    -0.28   0.16  -0.16    -0.02  -0.04  -0.20     0.05  -0.03   0.18
   9   6    -0.17   0.22   0.00    -0.09   0.01   0.07    -0.30  -0.29  -0.06
  10   6    -0.01   0.06   0.11    -0.03  -0.02   0.17     0.37  -0.18   0.02
  11   6    -0.08  -0.08   0.06    -0.09   0.03   0.10    -0.34   0.03  -0.19
  12   6     0.09  -0.33   0.01     0.04  -0.09  -0.06     0.29   0.03   0.13
  13   6     0.00   0.03   0.11     0.04  -0.21  -0.07     0.01   0.03  -0.05
  14   6     0.19  -0.22   0.03     0.07  -0.05  -0.06    -0.01  -0.08   0.06
  15   1    -0.05  -0.07   0.00    -0.03  -0.09   0.10     0.09  -0.05   0.06
  16   1    -0.16  -0.08  -0.08    -0.02  -0.09  -0.13     0.03  -0.06  -0.03
  17   1     0.00  -0.02  -0.02     0.14   0.12   0.02    -0.04  -0.01   0.01
  18   1    -0.07   0.07  -0.00    -0.02   0.00   0.03    -0.08  -0.08  -0.03
  19   1     0.08   0.09   0.07    -0.00   0.01   0.09     0.11  -0.06  -0.02
  20   1     0.05  -0.10  -0.01     0.01  -0.02  -0.03     0.09   0.01   0.04
  21   1    -0.03  -0.02  -0.02     0.05   0.10   0.13     0.00  -0.01   0.00
  22   1    -0.04  -0.04  -0.03     0.06   0.08   0.11    -0.00  -0.00  -0.01
  23   1     0.14  -0.03   0.02     0.02   0.01  -0.00     0.01   0.07   0.03
  24   1    -0.04   0.16   0.13    -0.03   0.05   0.04    -0.12   0.20   0.06
  25   1    -0.03   0.07  -0.02    -0.01   0.02   0.01    -0.10   0.08  -0.08
  26   1    -0.03  -0.01  -0.01     0.04  -0.01   0.07    -0.01  -0.01  -0.00
                     22                     23                     24
                        a                      a                      a 
 Frequencies --   596.3163               656.9546               673.8391
 Red. masses --    11.6035                12.1292                11.5046
 Frc consts  --     0.0000                 0.0000                 0.0000
 IR Inten    --     1.7125                24.4434                15.7504
 Raman Activ --     0.0000                 0.0000                 0.0000
 Depolar     --     0.0000                 0.0000                 0.0000
 Atom AN      X      Y      Z        X      Y      Z        X      Y      Z
   1   8    -0.06  -0.13  -0.03     0.04  -0.27   0.02    -0.02   0.18  -0.04
   2   8     0.14  -0.04  -0.02    -0.00   0.01   0.05    -0.00   0.01   0.05
   3   8     0.26  -0.03   0.08     0.28   0.07   0.23    -0.14  -0.04  -0.17
   4   7     0.04   0.10   0.08     0.01   0.06   0.01     0.01  -0.03  -0.00
   5   7     0.01   0.00   0.12     0.01   0.00  -0.08     0.01  -0.00  -0.05
   6   6    -0.10   0.03  -0.02    -0.04   0.02   0.21     0.01   0.02  -0.16
   7   6    -0.10   0.16  -0.14    -0.24   0.07  -0.03     0.13  -0.01  -0.03
   8   6    -0.26   0.12   0.51    -0.01   0.01  -0.02    -0.11   0.07   0.40
   9   6     0.03   0.08  -0.10     0.03  -0.00  -0.16     0.06  -0.04  -0.21
  10   6    -0.10  -0.05  -0.23     0.01  -0.01  -0.12     0.03  -0.06  -0.22
  11   6     0.13  -0.06  -0.35    -0.11   0.08   0.42    -0.08   0.08   0.35
  12   6    -0.15  -0.13   0.06    -0.05  -0.00   0.14    -0.08   0.02   0.22
  13   6     0.05  -0.06  -0.15    -0.04   0.07  -0.43     0.03  -0.10   0.36
  14   6     0.01   0.03   0.25     0.10  -0.08  -0.35     0.11  -0.07  -0.39
  15   1     0.04  -0.04   0.06    -0.02   0.01   0.05     0.07  -0.02  -0.02
  16   1     0.01  -0.04  -0.09    -0.00   0.01   0.06     0.02  -0.02  -0.09
  17   1    -0.01   0.04  -0.05    -0.21  -0.01   0.03     0.17   0.02  -0.05
  18   1     0.03   0.01  -0.08     0.00   0.00  -0.02     0.04  -0.03  -0.13
  19   1     0.02  -0.03  -0.18    -0.01   0.02   0.04     0.01  -0.03  -0.09
  20   1    -0.05  -0.04  -0.04    -0.02   0.00   0.07    -0.02   0.00   0.02
  21   1     0.03   0.03   0.06     0.04  -0.05  -0.02    -0.03   0.04   0.03
  22   1     0.02   0.04   0.05     0.02   0.06   0.02    -0.01  -0.03  -0.01
  23   1    -0.00   0.01   0.04     0.03  -0.01  -0.02     0.01  -0.01  -0.01
  24   1     0.00   0.03   0.02     0.00  -0.01  -0.01    -0.00  -0.01   0.00
  25   1     0.04  -0.01   0.01    -0.00   0.00   0.02     0.01   0.00   0.03
  26   1     0.02  -0.06   0.01     0.02  -0.00  -0.00    -0.01  -0.02   0.00
                     25                     26                     27
                        a                      a                      a 
 Frequencies --   701.0028               760.2240               794.0871
 Red. masses --    12.4257                11.8894                11.5338
 Frc consts  --     0.0000                 0.0000                 0.0000
 IR Inten    --    11.0632                85.2506                23.8797
 Raman Activ --     0.0000                 0.0000                 0.0000
 Depolar     --     0.0000                 0.0000                 0.0000
 Atom AN      X      Y      Z        X      Y      Z        X      Y      Z
   1   8     0.12  -0.21  -0.22    -0.10   0.18   0.17     0.00  -0.00   0.00
   2   8    -0.19  -0.00  -0.05    -0.19  -0.00  -0.04     0.47   0.07   0.11
   3   8     0.25   0.27   0.03    -0.06  -0.27  -0.03    -0.00   0.00   0.01
   4   7    -0.02   0.07   0.06    -0.00  -0.02  -0.01    -0.00  -0.01  -0.00
   5   7     0.07  -0.12   0.06     0.12  -0.16   0.08     0.11  -0.25   0.07
   6   6    -0.21   0.00  -0.16    -0.39  -0.05  -0.10     0.00   0.02   0.00
   7   6    -0.26   0.09  -0.06    -0.01  -0.03   0.06     0.00  -0.00   0.01
   8   6    -0.00  -0.04  -0.01    -0.20  -0.00   0.07     0.04   0.02  -0.01
   9   6     0.04  -0.07   0.04     0.02   0.01   0.00    -0.31  -0.33   0.00
  10   6     0.22  -0.04   0.07     0.23  -0.11   0.07    -0.17   0.21  -0.06
  11   6     0.08  -0.03   0.00     0.09  -0.03   0.02    -0.15  -0.22   0.01
  12   6     0.21   0.29  -0.01     0.22   0.30   0.04    -0.07   0.39  -0.07
  13   6    -0.31  -0.25   0.32     0.37   0.17  -0.25    -0.00   0.01  -0.01
  14   6    -0.08   0.09  -0.01    -0.04   0.10  -0.05     0.00   0.15  -0.05
  15   1    -0.04  -0.05   0.03    -0.13  -0.03  -0.00     0.01  -0.01   0.02
  16   1    -0.05  -0.05  -0.12    -0.16  -0.03  -0.01    -0.03  -0.02  -0.02
  17   1     0.04   0.05  -0.04    -0.04  -0.03   0.01    -0.00  -0.00   0.00
  18   1     0.03  -0.03   0.01     0.04  -0.02  -0.03    -0.17  -0.06  -0.05
  19   1     0.04  -0.02   0.03     0.07  -0.04  -0.02    -0.12  -0.02  -0.09
  20   1     0.06   0.08   0.00     0.06   0.08  -0.05    -0.04   0.12  -0.07
  21   1     0.02  -0.02   0.00     0.01  -0.02  -0.02     0.00  -0.01  -0.01
  22   1     0.02   0.06   0.05    -0.00  -0.01  -0.01    -0.00  -0.00  -0.00
  23   1    -0.01  -0.02  -0.01     0.00  -0.04  -0.01     0.13  -0.12   0.03
  24   1     0.05  -0.09  -0.02     0.06  -0.10  -0.01     0.00   0.03   0.03
  25   1    -0.02  -0.01  -0.01    -0.01  -0.01  -0.00     0.16   0.00   0.06
  26   1     0.04  -0.04  -0.00    -0.01   0.02   0.00     0.00   0.01  -0.00
                     28                     29                     30
                        a                      a                      a 
 Frequencies --   812.3461               850.3544               861.4349
 Red. masses --     4.0624                 9.3018                 4.1615
 Frc consts  --     0.0000                 0.0000                 0.0000
 IR Inten    --    35.2056               204.0274                37.7724
 Raman Activ --     0.0000                 0.0000                 0.0000
 Depolar     --     0.0000                 0.0000                 0.0000
 Atom AN      X      Y      Z        X      Y      Z        X      Y      Z
   1   8     0.02  -0.08  -0.02    -0.03   0.22   0.04     0.01  -0.07  -0.01
   2   8    -0.05   0.01   0.02     0.01   0.00   0.01    -0.01  -0.00  -0.01
   3   8    -0.01   0.07   0.05     0.14  -0.21  -0.14    -0.06   0.08   0.04
   4   7    -0.01   0.03   0.05    -0.13  -0.06  -0.06     0.06   0.01   0.02
   5   7    -0.02   0.03   0.02    -0.03   0.04  -0.03     0.02  -0.03  -0.01
   6   6     0.04  -0.05  -0.05     0.04   0.09   0.15    -0.03  -0.03  -0.06
   7   6     0.07  -0.04   0.07    -0.43   0.13  -0.15     0.18  -0.04   0.04
   8   6     0.04  -0.02  -0.11     0.11  -0.03  -0.13    -0.06   0.01   0.07
   9   6    -0.01   0.05   0.12     0.05  -0.06  -0.10     0.09  -0.04  -0.39
  10   6    -0.05   0.06   0.24    -0.06   0.08   0.09     0.00  -0.02   0.09
  11   6     0.03  -0.00  -0.08    -0.01   0.01   0.01    -0.01   0.00   0.04
  12   6    -0.05   0.02   0.28    -0.05  -0.05   0.07    -0.00   0.05   0.08
  13   6    -0.10   0.02  -0.07     0.34  -0.09   0.29    -0.12   0.03  -0.10
  14   6     0.04  -0.05  -0.16     0.01  -0.02   0.01    -0.02   0.02   0.06
  15   1    -0.04   0.02  -0.05     0.02  -0.02   0.10     0.01   0.00  -0.04
  16   1     0.00   0.03   0.05     0.05  -0.03  -0.06    -0.02   0.01   0.01
  17   1     0.00  -0.01   0.03    -0.17  -0.00  -0.06     0.07   0.00   0.02
  18   1     0.08  -0.04  -0.25    -0.06   0.04   0.25    -0.20   0.15   0.75
  19   1     0.16  -0.13  -0.56     0.03  -0.03  -0.17     0.03  -0.03  -0.08
  20   1     0.15  -0.12  -0.50     0.05  -0.06  -0.16     0.05  -0.03  -0.23
  21   1    -0.01   0.01  -0.01     0.09  -0.19  -0.08    -0.04   0.09   0.04
  22   1    -0.01  -0.01  -0.01     0.04   0.15   0.10    -0.02  -0.07  -0.04
  23   1    -0.02   0.02   0.01    -0.01   0.02   0.01     0.02  -0.01  -0.00
  24   1    -0.00   0.01  -0.01    -0.01   0.02   0.00     0.01  -0.01  -0.01
  25   1    -0.02   0.01   0.02    -0.00   0.00  -0.00     0.00  -0.00  -0.01
  26   1    -0.01   0.05   0.02     0.12  -0.12  -0.06    -0.05   0.04   0.02
                     31                     32                     33
                        a                      a                      a 
 Frequencies --   887.9612               896.5592               929.4657
 Red. masses --     3.3514                 6.9075                 5.2632
 Frc consts  --     0.0000                 0.0000                 0.0000
 IR Inten    --     0.3735                19.0330                51.7401
 Raman Activ --     0.0000                 0.0000                 0.0000
 Depolar     --     0.0000                 0.0000                 0.0000
 Atom AN      X      Y      Z        X      Y      Z        X      Y      Z
   1   8    -0.00   0.01  -0.00     0.01   0.04   0.01    -0.01   0.02  -0.02
   2   8     0.00   0.00   0.01     0.04   0.01   0.01     0.00   0.00  -0.00
   3   8    -0.00  -0.00  -0.01     0.05  -0.04  -0.02    -0.00   0.00  -0.04
   4   7     0.02  -0.03  -0.05    -0.05   0.29   0.17     0.10  -0.05  -0.31
   5   7     0.00  -0.01   0.01    -0.03   0.02  -0.02     0.00  -0.04   0.01
   6   6    -0.00   0.03   0.06     0.08  -0.44  -0.27    -0.09  -0.16   0.35
   7   6     0.00   0.03  -0.02    -0.18  -0.17  -0.04     0.11   0.18  -0.14
   8   6     0.01  -0.00  -0.05     0.03   0.01   0.10    -0.05  -0.01  -0.05
   9   6    -0.03   0.02   0.09     0.00   0.00  -0.02    -0.02   0.09  -0.01
  10   6     0.07  -0.08  -0.27     0.01   0.13  -0.08     0.02  -0.01   0.05
  11   6     0.02  -0.02  -0.09    -0.03  -0.02  -0.01    -0.02  -0.01   0.01
  12   6    -0.09   0.06   0.29     0.04   0.03   0.01     0.04   0.06  -0.01
  13   6     0.00  -0.01   0.02     0.08  -0.01   0.07    -0.03  -0.04   0.08
  14   6    -0.00   0.01   0.01    -0.01  -0.04   0.01    -0.01  -0.00  -0.01
  15   1     0.00  -0.01   0.05    -0.08   0.15  -0.47    -0.14   0.04  -0.00
  16   1     0.00  -0.01  -0.01     0.11   0.19   0.28    -0.00   0.06   0.22
  17   1     0.01   0.01  -0.01    -0.20  -0.01   0.13     0.02   0.12   0.08
  18   1     0.01  -0.01  -0.05    -0.04   0.02   0.02    -0.01   0.02  -0.04
  19   1    -0.15   0.14   0.58    -0.01   0.07   0.08     0.02  -0.02  -0.07
  20   1     0.14  -0.11  -0.61     0.07  -0.02  -0.01    -0.00   0.02   0.02
  21   1    -0.00   0.01   0.02     0.02   0.07   0.09    -0.04   0.31   0.31
  22   1    -0.00  -0.01  -0.00     0.02   0.10   0.09    -0.04  -0.10   0.09
  23   1     0.00  -0.00   0.01     0.01  -0.00   0.00     0.04  -0.03   0.00
  24   1     0.00   0.01  -0.01    -0.02   0.04   0.00    -0.00   0.03  -0.00
  25   1     0.01   0.00   0.02    -0.01   0.01  -0.01    -0.01   0.00  -0.00
  26   1     0.00  -0.04  -0.02     0.03  -0.03   0.02    -0.03  -0.54  -0.15
                     34                     35                     36
                        a                      a                      a 
 Frequencies --   973.6359              1014.3711              1027.1829
 Red. masses --     8.1594                 4.4888                 5.2482
 Frc consts  --     0.0000                 0.0000                 0.0000
 IR Inten    --    20.5577               125.0743                 1.3019
 Raman Activ --     0.0000                 0.0000                 0.0000
 Depolar     --     0.0000                 0.0000                 0.0000
 Atom AN      X      Y      Z        X      Y      Z        X      Y      Z
   1   8     0.01   0.01  -0.01     0.01  -0.03   0.02    -0.01  -0.02  -0.01
   2   8    -0.04   0.01  -0.01    -0.01   0.00  -0.01     0.03   0.00   0.01
   3   8     0.01  -0.00  -0.01    -0.00   0.05   0.05    -0.00   0.00   0.01
   4   7    -0.02   0.04   0.06    -0.39   0.04  -0.10    -0.01  -0.14  -0.00
   5   7    -0.03  -0.23   0.05    -0.01  -0.01  -0.00    -0.31  -0.06  -0.07
   6   6     0.28   0.02   0.05     0.04   0.01  -0.09    -0.14  -0.09  -0.02
   7   6    -0.04  -0.05  -0.04     0.20  -0.09   0.16     0.04   0.18   0.04
   8   6    -0.17   0.02  -0.09    -0.02   0.02   0.04     0.10  -0.10   0.09
   9   6    -0.04   0.42  -0.08     0.01  -0.00  -0.01     0.28   0.05   0.06
  10   6     0.09  -0.44   0.12     0.00  -0.03  -0.01    -0.06   0.16  -0.06
  11   6    -0.10  -0.07  -0.01    -0.00  -0.00  -0.00    -0.00  -0.07   0.01
  12   6    -0.02   0.11  -0.03    -0.00  -0.01  -0.00     0.07   0.09  -0.00
  13   6     0.00  -0.02   0.06    -0.06   0.09  -0.13    -0.01   0.00  -0.03
  14   6     0.01   0.12  -0.02     0.01   0.02   0.00    -0.04  -0.06   0.00
  15   1     0.17   0.02  -0.04     0.04   0.00  -0.03    -0.30  -0.01   0.05
  16   1     0.10   0.02   0.02    -0.05  -0.00   0.01     0.13   0.04  -0.02
  17   1    -0.09  -0.03   0.01     0.34   0.14   0.13     0.11   0.03  -0.08
  18   1    -0.07   0.14  -0.06    -0.00   0.00   0.02     0.22  -0.05   0.07
  19   1    -0.01  -0.15   0.01    -0.01  -0.00   0.02    -0.06   0.02  -0.00
  20   1    -0.23   0.12  -0.07    -0.02   0.00  -0.00     0.14  -0.02   0.04
  21   1     0.01  -0.03  -0.03     0.21  -0.33  -0.06     0.01  -0.10  -0.09
  22   1     0.01   0.04   0.00     0.08   0.35   0.26    -0.01  -0.03  -0.05
  23   1     0.27  -0.21   0.03     0.01  -0.01   0.01     0.32  -0.22   0.04
  24   1    -0.06   0.22  -0.01    -0.01   0.01   0.00    -0.19   0.45  -0.02
  25   1     0.07  -0.02   0.03     0.02  -0.01   0.01    -0.03   0.01  -0.01
  26   1     0.01   0.06   0.02     0.27  -0.33  -0.15    -0.00   0.09   0.02
                     37                     38                     39
                        a                      a                      a 
 Frequencies --  1056.2967              1097.5514              1113.3944
 Red. masses --     5.9971                 6.3359                 7.9058
 Frc consts  --     0.0000                 0.0000                 0.0000
 IR Inten    --    22.3150               355.8236                40.3236
 Raman Activ --     0.0000                 0.0000                 0.0000
 Depolar     --     0.0000                 0.0000                 0.0000
 Atom AN      X      Y      Z        X      Y      Z        X      Y      Z
   1   8     0.03   0.03   0.03     0.01   0.02   0.01    -0.04  -0.04  -0.03
   2   8    -0.04   0.01  -0.01     0.31  -0.14   0.12     0.05  -0.03   0.02
   3   8    -0.01  -0.00   0.01    -0.00  -0.01   0.00     0.02  -0.01  -0.00
   4   7     0.06   0.27  -0.01    -0.01   0.08   0.02     0.05  -0.22  -0.17
   5   7    -0.16  -0.04  -0.03     0.00   0.12  -0.03    -0.03   0.02  -0.01
   6   6    -0.12   0.24  -0.04    -0.03   0.04   0.05     0.09   0.12  -0.37
   7   6    -0.12  -0.40  -0.04    -0.02  -0.14  -0.07    -0.03   0.32   0.49
   8   6     0.11   0.02  -0.04     0.01  -0.08  -0.00     0.04   0.03   0.04
   9   6     0.16  -0.13   0.07     0.08   0.20  -0.02     0.06   0.00   0.01
  10   6    -0.04   0.03  -0.01    -0.02  -0.06   0.01     0.00  -0.04  -0.00
  11   6     0.02  -0.00   0.00     0.04  -0.08   0.03     0.02  -0.01   0.00
  12   6    -0.02  -0.05   0.01     0.01   0.25  -0.04    -0.02   0.02  -0.01
  13   6     0.03   0.03  -0.03     0.00   0.02  -0.01     0.01  -0.04   0.00
  14   6     0.02   0.03   0.00    -0.19  -0.28  -0.00    -0.03  -0.04  -0.00
  15   1     0.37  -0.02   0.00     0.03  -0.01   0.03     0.14   0.01  -0.08
  16   1    -0.35  -0.12  -0.06    -0.01  -0.02  -0.03    -0.12  -0.02  -0.07
  17   1    -0.02  -0.06   0.04     0.09  -0.03  -0.06    -0.41   0.07   0.32
  18   1     0.21  -0.11   0.07     0.02   0.05  -0.01     0.02  -0.00   0.01
  19   1    -0.07  -0.04  -0.02    -0.23  -0.17  -0.02    -0.07  -0.06   0.01
  20   1     0.04  -0.03   0.01    -0.02   0.08  -0.03    -0.04   0.02  -0.01
  21   1    -0.03   0.23   0.18     0.00   0.02   0.02    -0.00   0.01   0.04
  22   1    -0.00   0.00   0.07     0.01   0.03   0.02    -0.04  -0.09  -0.02
  23   1     0.16  -0.11   0.02    -0.10   0.09  -0.02     0.00  -0.00  -0.00
  24   1    -0.09   0.21  -0.01     0.01  -0.04   0.00    -0.01   0.03  -0.00
  25   1     0.06  -0.02   0.02    -0.60   0.16  -0.21    -0.12   0.03  -0.04
  26   1    -0.03  -0.16  -0.03     0.01   0.01   0.00    -0.01  -0.16  -0.06
                     40                     41                     42
                        a                      a                      a 
 Frequencies --  1149.6228              1159.0764              1185.7037
 Red. masses --     6.2443                 3.2370                 5.7039
 Frc consts  --     0.0000                 0.0000                 0.0000
 IR Inten    --    11.8112                48.8756                36.9916
 Raman Activ --     0.0000                 0.0000                 0.0000
 Depolar     --     0.0000                 0.0000                 0.0000
 Atom AN      X      Y      Z        X      Y      Z        X      Y      Z
   1   8    -0.00  -0.00  -0.04    -0.00   0.00  -0.00    -0.00   0.00   0.00
   2   8    -0.01  -0.02   0.00     0.05   0.14  -0.02    -0.03  -0.02  -0.00
   3   8     0.03  -0.00  -0.03     0.01  -0.01  -0.00    -0.00   0.00   0.00
   4   7    -0.16   0.05   0.08    -0.02   0.01  -0.01     0.01  -0.06   0.00
   5   7    -0.00  -0.02   0.01    -0.00   0.12  -0.03     0.12  -0.12   0.06
   6   6    -0.05   0.01   0.09    -0.02   0.04  -0.01     0.21  -0.01   0.08
   7   6     0.52   0.10  -0.31     0.04  -0.01  -0.00    -0.06   0.08   0.03
   8   6    -0.07   0.03   0.02     0.02  -0.05   0.02    -0.41  -0.06  -0.13
   9   6     0.00  -0.05   0.01     0.05   0.18  -0.02    -0.18   0.01  -0.04
  10   6    -0.03   0.01  -0.02    -0.06  -0.13   0.01    -0.15   0.07  -0.05
  11   6     0.00   0.03  -0.01     0.00  -0.15   0.03    -0.08   0.17  -0.06
  12   6     0.03   0.01   0.00     0.09   0.05   0.01     0.12   0.09   0.02
  13   6    -0.11  -0.05   0.14    -0.01  -0.00   0.01     0.01  -0.01  -0.01
  14   6     0.03   0.00   0.01    -0.20  -0.10  -0.03     0.09  -0.01   0.03
  15   1    -0.01  -0.01   0.04    -0.01  -0.00   0.02     0.25   0.03  -0.08
  16   1    -0.31  -0.03   0.16    -0.03  -0.01  -0.02     0.14   0.04   0.03
  17   1    -0.54  -0.17  -0.02    -0.07  -0.03   0.00     0.08   0.06   0.02
  18   1     0.12  -0.07   0.04    -0.15   0.12  -0.06     0.46  -0.23   0.16
  19   1    -0.02   0.00   0.00    -0.39  -0.29  -0.03    -0.09  -0.01  -0.02
  20   1     0.01   0.00   0.01     0.48  -0.19   0.16     0.35  -0.11   0.11
  21   1     0.08  -0.17  -0.07     0.01  -0.01   0.01    -0.00  -0.01  -0.01
  22   1     0.01   0.10   0.01     0.00   0.01   0.01    -0.00  -0.01  -0.01
  23   1     0.03  -0.02   0.00    -0.12   0.10  -0.02     0.06  -0.05   0.02
  24   1    -0.00   0.00   0.00     0.01  -0.02  -0.01     0.05  -0.12   0.02
  25   1    -0.08   0.02  -0.03     0.41  -0.08   0.14    -0.09   0.02  -0.03
  26   1     0.09   0.07   0.00     0.02   0.00  -0.01    -0.01   0.03   0.01
                     43                     44                     45
                        a                      a                      a 
 Frequencies --  1193.2647              1210.2801              1250.1897
 Red. masses --     4.3192                 7.3244                 4.1775
 Frc consts  --     0.0000                 0.0000                 0.0000
 IR Inten    --    28.7023               143.6402               217.3825
 Raman Activ --     0.0000                 0.0000                 0.0000
 Depolar     --     0.0000                 0.0000                 0.0000
 Atom AN      X      Y      Z        X      Y      Z        X      Y      Z
   1   8    -0.00  -0.01  -0.00     0.00   0.01   0.00     0.05   0.11   0.06
   2   8     0.04   0.01   0.01     0.26   0.08   0.05     0.01  -0.01   0.01
   3   8     0.00  -0.00  -0.00     0.01  -0.01  -0.00     0.13  -0.14  -0.04
   4   7    -0.04   0.22  -0.08    -0.00  -0.04   0.02     0.02  -0.22  -0.02
   5   7     0.02  -0.02   0.01    -0.03   0.11  -0.04     0.01  -0.03   0.01
   6   6     0.11   0.15  -0.10    -0.01  -0.01   0.05     0.12   0.12  -0.08
   7   6     0.09  -0.30   0.20     0.02   0.07  -0.04    -0.02  -0.19  -0.21
   8   6    -0.13  -0.09   0.02    -0.13  -0.05  -0.04    -0.03  -0.04   0.04
   9   6    -0.05   0.04  -0.03     0.11   0.05   0.02    -0.03   0.01  -0.01
  10   6     0.01   0.04  -0.01     0.13  -0.07   0.05     0.01   0.00   0.00
  11   6    -0.01   0.03  -0.01     0.02  -0.21   0.05     0.01   0.06  -0.01
  12   6    -0.02   0.04  -0.02    -0.15   0.08  -0.05    -0.03   0.00  -0.01
  13   6    -0.02   0.01   0.02    -0.02  -0.00   0.00    -0.16   0.05   0.00
  14   6    -0.07  -0.02  -0.02    -0.52  -0.11  -0.12    -0.02   0.02  -0.01
  15   1    -0.33  -0.07   0.26     0.19   0.01  -0.07    -0.27  -0.04   0.18
  16   1     0.38   0.03  -0.25    -0.03   0.01   0.04    -0.04  -0.01  -0.03
  17   1    -0.28  -0.31  -0.12     0.02   0.06   0.04    -0.04   0.28   0.46
  18   1     0.07  -0.02   0.03     0.23  -0.08   0.07    -0.00   0.00   0.00
  19   1     0.16   0.12   0.01     0.44   0.26   0.04     0.04   0.03   0.01
  20   1     0.07  -0.02   0.03    -0.03   0.01  -0.01     0.07  -0.03   0.03
  21   1     0.04   0.09   0.12    -0.01  -0.02  -0.03    -0.22   0.20   0.02
  22   1    -0.02   0.01   0.04     0.01   0.02  -0.00     0.21   0.33   0.15
  23   1     0.01  -0.01  -0.00    -0.11   0.08  -0.03     0.03  -0.02   0.00
  24   1     0.01  -0.02   0.00    -0.01   0.03  -0.01     0.00  -0.00   0.00
  25   1     0.02  -0.00   0.01     0.21  -0.03   0.07    -0.02   0.00  -0.01
  26   1     0.06  -0.20  -0.08    -0.01   0.03   0.01    -0.15   0.19   0.07
                     46                     47                     48
                        a                      a                      a 
 Frequencies --  1270.4980              1288.8713              1307.5310
 Red. masses --     3.6509                 7.9763                 7.7650
 Frc consts  --     0.0000                 0.0000                 0.0000
 IR Inten    --    37.2256               214.2959               238.9332
 Raman Activ --     0.0000                 0.0000                 0.0000
 Depolar     --     0.0000                 0.0000                 0.0000
 Atom AN      X      Y      Z        X      Y      Z        X      Y      Z
   1   8     0.01   0.03   0.01    -0.08  -0.22  -0.12     0.00  -0.01  -0.00
   2   8     0.02  -0.08   0.02     0.04  -0.02   0.01    -0.12   0.03  -0.04
   3   8     0.02  -0.03  -0.01    -0.26   0.30   0.08    -0.04   0.04   0.01
   4   7    -0.01  -0.00   0.01     0.04   0.09   0.08    -0.00   0.02   0.05
   5   7    -0.07  -0.05  -0.01     0.00  -0.03   0.00    -0.06   0.15  -0.05
   6   6    -0.11   0.04   0.07     0.22   0.08  -0.07    -0.10   0.07   0.08
   7   6     0.07   0.02  -0.01    -0.10  -0.10  -0.18     0.08  -0.10  -0.13
   8   6    -0.09  -0.21  -0.02    -0.06  -0.04   0.03    -0.21   0.04  -0.09
   9   6     0.07  -0.08   0.04    -0.01   0.01  -0.01     0.20  -0.08   0.06
  10   6    -0.15  -0.08  -0.02    -0.01  -0.05   0.00    -0.28   0.02  -0.07
  11   6     0.18   0.12   0.02     0.03   0.04  -0.00    -0.04  -0.36   0.07
  12   6    -0.04   0.05  -0.02    -0.05   0.02  -0.02     0.34   0.09   0.07
  13   6    -0.05   0.00  -0.01     0.39  -0.07   0.05     0.03  -0.02   0.01
  14   6     0.03   0.21  -0.04    -0.05   0.04  -0.02     0.20  -0.04   0.06
  15   1     0.28   0.02  -0.10    -0.25  -0.05   0.18     0.12   0.01  -0.01
  16   1     0.09  -0.01  -0.07    -0.23  -0.02   0.11     0.30   0.03  -0.16
  17   1    -0.03   0.01   0.03     0.04   0.19   0.26    -0.09   0.16   0.31
  18   1    -0.45   0.18  -0.16    -0.04   0.02  -0.01    -0.03   0.01  -0.01
  19   1     0.28   0.20   0.02     0.09   0.05   0.01    -0.02   0.06  -0.02
  20   1     0.39  -0.16   0.13     0.13  -0.06   0.04    -0.18   0.15  -0.08
  21   1     0.00  -0.02  -0.01     0.15  -0.15  -0.00     0.06  -0.06   0.02
  22   1    -0.00  -0.00  -0.01    -0.13  -0.26  -0.10    -0.04  -0.10  -0.05
  23   1     0.08  -0.06   0.01     0.02  -0.02   0.01    -0.16   0.11  -0.04
  24   1    -0.04   0.10  -0.01    -0.00   0.01   0.01    -0.01   0.07  -0.04
  25   1    -0.23   0.05  -0.08    -0.05   0.01  -0.02     0.05  -0.02   0.02
  26   1     0.00  -0.01   0.00     0.09  -0.04  -0.01     0.06   0.01   0.00
                     49                     50                     51
                        a                      a                      a 
 Frequencies --  1318.1844              1325.2721              1382.3252
 Red. masses --     6.5186                 9.2092                10.1693
 Frc consts  --     0.0000                 0.0000                 0.0000
 IR Inten    --   307.2176               366.1860                54.3010
 Raman Activ --     0.0000                 0.0000                 0.0000
 Depolar     --     0.0000                 0.0000                 0.0000
 Atom AN      X      Y      Z        X      Y      Z        X      Y      Z
   1   8     0.06   0.14   0.07    -0.13  -0.30  -0.17    -0.00  -0.01  -0.00
   2   8     0.03   0.00   0.01     0.00   0.01  -0.00     0.13  -0.05   0.05
   3   8     0.05  -0.09  -0.04    -0.21   0.29   0.10    -0.01   0.01   0.01
   4   7     0.00   0.09   0.10    -0.04  -0.13  -0.04    -0.00   0.00   0.03
   5   7     0.04  -0.08   0.03     0.01  -0.03   0.01     0.07  -0.03   0.02
   6   6    -0.28   0.02   0.07    -0.27  -0.02   0.10    -0.14  -0.05   0.01
   7   6     0.06  -0.08  -0.14     0.14  -0.01  -0.01     0.01  -0.02  -0.01
   8   6     0.20  -0.06   0.03     0.11  -0.05  -0.00     0.23   0.41  -0.03
   9   6    -0.17   0.08  -0.05    -0.08   0.04  -0.03     0.20  -0.03   0.05
  10   6     0.24   0.09   0.05     0.12   0.07   0.02    -0.13  -0.28   0.02
  11   6     0.02   0.23  -0.04     0.03   0.10  -0.01    -0.39  -0.09  -0.08
  12   6    -0.21  -0.06  -0.04    -0.09  -0.02  -0.02     0.06  -0.18   0.05
  13   6    -0.16  -0.03  -0.04     0.42  -0.00   0.09     0.02  -0.00   0.00
  14   6    -0.09  -0.09  -0.01    -0.02  -0.06   0.01    -0.15   0.41  -0.12
  15   1     0.10   0.02  -0.06     0.17   0.03  -0.11    -0.08   0.02  -0.02
  16   1     0.26   0.01  -0.19     0.25   0.01  -0.16     0.13   0.02  -0.06
  17   1    -0.06   0.20   0.33    -0.11  -0.02   0.04    -0.02   0.02   0.04
  18   1     0.07  -0.03   0.02     0.02  -0.01   0.00     0.13  -0.04   0.04
  19   1    -0.09  -0.10  -0.01    -0.06  -0.05  -0.01     0.04  -0.03   0.01
  20   1    -0.02  -0.03  -0.00    -0.04  -0.00  -0.01     0.14  -0.11   0.05
  21   1     0.17  -0.18   0.00    -0.15   0.14   0.01    -0.03   0.00  -0.04
  22   1    -0.14  -0.29  -0.15     0.16   0.33   0.11     0.02   0.03  -0.08
  23   1     0.10  -0.06   0.02     0.04  -0.03   0.01     0.06  -0.02   0.05
  24   1     0.01  -0.05   0.02     0.00  -0.02   0.01     0.04  -0.19   0.05
  25   1     0.04  -0.01   0.02     0.03  -0.01   0.01    -0.16   0.05  -0.05
  26   1     0.13  -0.04  -0.02    -0.06   0.08   0.02     0.03  -0.05  -0.01
                     52                     53                     54
                        a                      a                      a 
 Frequencies --  1393.1139              1399.9047              1431.7814
 Red. masses --     1.9759                 1.9006                 6.0723
 Frc consts  --     0.0000                 0.0000                 0.0000
 IR Inten    --   148.2595                97.8824                 7.7536
 Raman Activ --     0.0000                 0.0000                 0.0000
 Depolar     --     0.0000                 0.0000                 0.0000
 Atom AN      X      Y      Z        X      Y      Z        X      Y      Z
   1   8    -0.01  -0.02  -0.01    -0.00  -0.00  -0.00     0.00   0.00  -0.00
   2   8     0.02  -0.01   0.01     0.01  -0.01   0.00     0.03  -0.05   0.02
   3   8     0.01   0.01  -0.02     0.01  -0.01   0.01    -0.00   0.00  -0.00
   4   7     0.00  -0.01  -0.25    -0.16  -0.16  -0.07     0.01   0.01   0.01
   5   7     0.01  -0.01   0.00    -0.01  -0.00  -0.00     0.03  -0.13   0.05
   6   6    -0.04  -0.01  -0.00     0.01  -0.01  -0.01     0.03  -0.05   0.03
   7   6     0.01   0.00  -0.00    -0.06   0.02   0.02     0.01  -0.01  -0.01
   8   6     0.03   0.05  -0.01    -0.02   0.03  -0.01    -0.15   0.30  -0.10
   9   6     0.02  -0.01   0.01     0.01  -0.03   0.01    -0.13  -0.17  -0.00
  10   6    -0.00  -0.03   0.00     0.02  -0.00   0.01     0.21  -0.01   0.06
  11   6    -0.04  -0.00  -0.01     0.03  -0.00   0.01     0.30  -0.07   0.12
  12   6     0.00  -0.03   0.01    -0.01  -0.02   0.00    -0.12  -0.14  -0.01
  13   6     0.01   0.01   0.02    -0.00   0.01  -0.01     0.00  -0.00   0.00
  14   6    -0.03   0.05  -0.02    -0.02   0.03  -0.01    -0.05   0.25  -0.06
  15   1     0.02  -0.02   0.01     0.01  -0.02   0.03    -0.05   0.01  -0.00
  16   1     0.05   0.02   0.00    -0.01   0.02   0.04     0.11   0.02  -0.02
  17   1    -0.01  -0.01  -0.01     0.03  -0.01  -0.04    -0.00   0.00   0.01
  18   1     0.01  -0.00   0.00    -0.01  -0.00  -0.00     0.04  -0.09   0.03
  19   1     0.01  -0.00  -0.00     0.00  -0.01  -0.00    -0.13  -0.14  -0.00
  20   1     0.01  -0.01   0.01     0.00  -0.01   0.00     0.05  -0.08   0.03
  21   1     0.30  -0.12   0.27     0.14   0.18   0.58    -0.01  -0.02  -0.04
  22   1    -0.16  -0.23   0.69     0.04   0.08  -0.28    -0.00  -0.00   0.01
  23   1     0.01  -0.00   0.01    -0.01   0.00  -0.01    -0.36   0.11  -0.20
  24   1     0.00  -0.02   0.01    -0.01   0.02  -0.01    -0.04   0.49  -0.18
  25   1    -0.02   0.01  -0.01    -0.01   0.00  -0.00    -0.11   0.02  -0.04
  26   1    -0.20   0.37   0.06     0.56   0.36  -0.06    -0.03  -0.03   0.00
                     55                     56                     57
                        a                      a                      a 
 Frequencies --  1465.1078              1478.6934              1519.1076
 Red. masses --     7.7678                 2.1200                10.7921
 Frc consts  --     0.0000                 0.0000                 0.0000
 IR Inten    --    85.7214                 0.1862               445.5028
 Raman Activ --     0.0000                 0.0000                 0.0000
 Depolar     --     0.0000                 0.0000                 0.0000
 Atom AN      X      Y      Z        X      Y      Z        X      Y      Z
   1   8    -0.00  -0.00   0.00     0.00   0.00  -0.00     0.00   0.00   0.00
   2   8    -0.05   0.01  -0.01    -0.00  -0.00  -0.00    -0.11  -0.03  -0.02
   3   8     0.00  -0.00   0.00    -0.00   0.00   0.00     0.01  -0.01  -0.00
   4   7    -0.01  -0.01  -0.01     0.01   0.01   0.02    -0.00  -0.00  -0.00
   5   7     0.22  -0.21   0.13     0.02  -0.02   0.01    -0.13   0.24  -0.09
   6   6    -0.07   0.03  -0.01    -0.17  -0.02  -0.25    -0.04  -0.02  -0.01
   7   6    -0.00   0.01   0.01    -0.00  -0.00  -0.01     0.00   0.00   0.00
   8   6     0.33  -0.24   0.13     0.06  -0.02  -0.00     0.15   0.10   0.02
   9   6    -0.06   0.25  -0.07    -0.00   0.02  -0.00    -0.22   0.09  -0.07
  10   6    -0.17  -0.06  -0.03     0.00   0.01  -0.00     0.08  -0.14   0.05
  11   6    -0.36   0.02  -0.06    -0.04   0.00  -0.01     0.15  -0.46   0.11
  12   6    -0.03   0.11  -0.03    -0.01  -0.00  -0.00    -0.39   0.22  -0.14
  13   6    -0.00   0.00  -0.00     0.01  -0.01  -0.00    -0.01   0.00  -0.00
  14   6     0.19  -0.04   0.06     0.02   0.01   0.00     0.41   0.06   0.09
  15   1     0.00   0.03  -0.05     0.30  -0.36   0.47    -0.02  -0.00  -0.00
  16   1    -0.10  -0.06  -0.04     0.19   0.44   0.46     0.01   0.00  -0.00
  17   1     0.00  -0.00  -0.00     0.00   0.00  -0.00    -0.00   0.00   0.00
  18   1     0.12   0.01   0.03    -0.01   0.01  -0.00     0.16  -0.08   0.05
  19   1     0.16   0.12   0.02    -0.02  -0.01  -0.00     0.11   0.02   0.02
  20   1     0.08  -0.00   0.02     0.00  -0.00   0.00     0.20  -0.06   0.06
  21   1     0.01   0.01   0.03    -0.03  -0.00  -0.05     0.00   0.00   0.01
  22   1    -0.00  -0.00  -0.00     0.01   0.02  -0.01    -0.00  -0.00   0.00
  23   1    -0.38   0.11  -0.20    -0.03   0.01  -0.02     0.07   0.03   0.07
  24   1     0.05   0.31  -0.17     0.01   0.02  -0.01    -0.02  -0.13   0.07
  25   1     0.00   0.00  -0.00    -0.00   0.00  -0.00    -0.06   0.00  -0.02
  26   1     0.02   0.02  -0.00    -0.02  -0.03   0.00     0.00   0.01  -0.00
                     58                     59                     60
                        a                      a                      a 
 Frequencies --  1583.9786              1597.9852              1727.4040
 Red. masses --    11.5082                11.5659                12.9303
 Frc consts  --     0.0000                 0.0000                 0.0000
 IR Inten    --     5.8499               173.4231               783.7332
 Raman Activ --     0.0000                 0.0000                 0.0000
 Depolar     --     0.0000                 0.0000                 0.0000
 Atom AN      X      Y      Z        X      Y      Z        X      Y      Z
   1   8    -0.00  -0.00  -0.00    -0.00  -0.00  -0.00     0.13   0.37   0.20
   2   8     0.01  -0.03   0.01    -0.02   0.02  -0.01    -0.00  -0.00  -0.00
   3   8    -0.00   0.00   0.00    -0.00   0.00   0.00    -0.16   0.25   0.08
   4   7     0.00  -0.00   0.00     0.00   0.00   0.00     0.01  -0.01  -0.01
   5   7     0.02   0.04  -0.01     0.06  -0.05   0.04    -0.00   0.00  -0.00
   6   6     0.04   0.04   0.01     0.03  -0.02   0.02    -0.00  -0.00  -0.00
   7   6     0.01   0.00  -0.00     0.00  -0.00  -0.01     0.00   0.02   0.01
   8   6    -0.21  -0.42   0.03    -0.23   0.24  -0.11     0.00  -0.00   0.00
   9   6     0.18   0.12   0.02     0.44  -0.22   0.16    -0.00   0.00  -0.00
  10   6     0.37   0.38   0.02     0.21  -0.02   0.06    -0.00  -0.00   0.00
  11   6    -0.30  -0.30  -0.02    -0.32   0.15  -0.11     0.00  -0.00   0.00
  12   6    -0.11  -0.19   0.01    -0.38   0.22  -0.14     0.00   0.00  -0.00
  13   6    -0.00  -0.00   0.00     0.00  -0.00   0.00     0.04  -0.76  -0.34
  14   6     0.06   0.40  -0.06     0.20  -0.31   0.11     0.00   0.00   0.00
  15   1     0.05   0.00  -0.01    -0.02   0.00  -0.00    -0.01   0.00  -0.00
  16   1    -0.05  -0.02  -0.00     0.04   0.01  -0.00    -0.00  -0.00  -0.01
  17   1    -0.00   0.00   0.00     0.00  -0.00  -0.00    -0.03  -0.03  -0.02
  18   1    -0.02   0.05  -0.02    -0.12   0.05  -0.04    -0.00   0.00  -0.00
  19   1    -0.13  -0.06  -0.02    -0.01  -0.05   0.00     0.00   0.00  -0.00
  20   1    -0.03  -0.05   0.00     0.09  -0.03   0.03     0.00   0.00  -0.00
  21   1    -0.00   0.00  -0.00     0.00  -0.01  -0.00    -0.01   0.02   0.01
  22   1     0.00   0.00  -0.00    -0.00  -0.00   0.00     0.02   0.11   0.06
  23   1    -0.03   0.03   0.01    -0.05   0.01  -0.04     0.00  -0.00  -0.00
  24   1     0.02  -0.07   0.01     0.02   0.02  -0.04    -0.00  -0.00  -0.00
  25   1    -0.08   0.02  -0.03     0.05  -0.01   0.02     0.00  -0.00  -0.00
  26   1    -0.00  -0.00   0.00    -0.00  -0.00   0.00    -0.01   0.02   0.00
                     61                     62                     63
                        a                      a                      a 
 Frequencies --  2590.1728              2980.0139              3003.1549
 Red. masses --     1.8316                 1.8427                 1.6199
 Frc consts  --     0.0000                 0.0000                 0.0000
 IR Inten    --   766.7520                40.2608                32.4087
 Raman Activ --     0.0000                 0.0000                 0.0000
 Depolar     --     0.0000                 0.0000                 0.0000
 Atom AN      X      Y      Z        X      Y      Z        X      Y      Z
   1   8    -0.00   0.01   0.01    -0.00  -0.00  -0.00    -0.00  -0.00  -0.00
   2   8     0.00   0.00   0.00     0.00   0.00   0.00     0.00  -0.00   0.00
   3   8     0.00   0.02   0.01    -0.00   0.00   0.00    -0.00   0.00   0.00
   4   7    -0.23   0.08  -0.03     0.00   0.00  -0.00    -0.00  -0.00  -0.00
   5   7     0.00  -0.00  -0.00     0.00  -0.00  -0.00     0.00  -0.00  -0.00
   6   6    -0.00  -0.00  -0.00     0.08  -0.24   0.10     0.06   0.16   0.16
   7   6    -0.01   0.03   0.02    -0.01   0.02  -0.01     0.01  -0.02   0.02
   8   6    -0.00   0.00  -0.00     0.00  -0.01   0.00     0.00   0.00   0.00
   9   6    -0.00  -0.00  -0.00     0.00   0.00   0.00    -0.00  -0.00  -0.00
  10   6     0.00  -0.00  -0.00    -0.00   0.00  -0.00    -0.00   0.00  -0.00
  11   6    -0.00   0.00  -0.00    -0.00  -0.00  -0.00     0.00   0.00  -0.00
  12   6    -0.00   0.00  -0.00     0.00   0.00   0.00     0.00   0.00  -0.00
  13   6     0.02  -0.03  -0.01     0.00   0.00   0.00     0.00   0.00   0.00
  14   6    -0.00  -0.00   0.00    -0.00   0.00  -0.00    -0.00  -0.00  -0.00
  15   1     0.00   0.00   0.00     0.05   0.18   0.14    -0.13  -0.79  -0.46
  16   1     0.00   0.00   0.00    -0.31   0.70  -0.51    -0.08   0.22  -0.12
  17   1    -0.01   0.01  -0.01     0.03  -0.10   0.07    -0.03   0.08  -0.05
  18   1     0.00   0.00   0.00    -0.00  -0.00  -0.00     0.01   0.01  -0.00
  19   1    -0.00  -0.00   0.00     0.01  -0.01   0.00     0.00  -0.00   0.00
  20   1    -0.00  -0.00   0.00    -0.00  -0.00   0.00    -0.00  -0.00   0.00
  21   1    -0.01   0.01  -0.01    -0.00   0.00   0.00     0.00  -0.00   0.00
  22   1     0.85  -0.46   0.04    -0.00   0.00   0.00     0.00  -0.00   0.00
  23   1    -0.00   0.00   0.00    -0.00  -0.00   0.00    -0.00  -0.00   0.00
  24   1    -0.00   0.00   0.00     0.00  -0.00   0.00     0.00   0.00   0.00
  25   1    -0.00  -0.00  -0.00    -0.00   0.00  -0.00    -0.00   0.00  -0.00
  26   1    -0.02   0.00   0.01     0.00  -0.00   0.00     0.00  -0.00   0.00
                     64                     65                     66
                        a                      a                      a 
 Frequencies --  3013.3451              3067.0294              3076.4467
 Red. masses --     1.7918                 1.7770                 1.8339
 Frc consts  --     0.0000                 0.0000                 0.0000
 IR Inten    --    28.8580                43.7615               186.1656
 Raman Activ --     0.0000                 0.0000                 0.0000
 Depolar     --     0.0000                 0.0000                 0.0000
 Atom AN      X      Y      Z        X      Y      Z        X      Y      Z
   1   8    -0.00   0.00   0.00     0.00  -0.00  -0.00    -0.00  -0.00   0.00
   2   8    -0.00   0.00  -0.00    -0.00  -0.00   0.00     0.00  -0.00   0.00
   3   8    -0.00   0.00   0.00     0.00   0.00   0.00     0.00  -0.00  -0.00
   4   7     0.01  -0.00  -0.00    -0.00  -0.00   0.00    -0.00  -0.00   0.00
   5   7     0.00   0.00   0.00     0.00   0.00   0.00     0.00   0.00  -0.00
   6   6     0.00  -0.05   0.00     0.00  -0.00   0.00    -0.00  -0.00  -0.00
   7   6     0.07  -0.21   0.14     0.00  -0.00   0.00     0.00  -0.00   0.00
   8   6    -0.00  -0.00   0.00     0.01  -0.00   0.00    -0.01  -0.00  -0.00
   9   6     0.00   0.00  -0.00    -0.01  -0.02   0.00    -0.10  -0.21   0.01
  10   6    -0.00   0.00  -0.00     0.09  -0.14   0.06     0.05  -0.07   0.03
  11   6    -0.00   0.00  -0.00    -0.00  -0.00   0.00     0.00  -0.01   0.00
  12   6     0.00  -0.00   0.00     0.08   0.17  -0.01    -0.05  -0.10   0.01
  13   6     0.00  -0.00   0.00    -0.00  -0.00  -0.00    -0.00   0.00   0.00
  14   6     0.00   0.00  -0.00     0.01   0.00   0.00    -0.00   0.00  -0.00
  15   1     0.02   0.11   0.07     0.00   0.00   0.00     0.00   0.01   0.01
  16   1    -0.03   0.07  -0.05    -0.00   0.01  -0.01    -0.00   0.00  -0.00
  17   1    -0.27   0.76  -0.51    -0.00   0.00  -0.00    -0.00   0.01  -0.01
  18   1    -0.00  -0.01  -0.00     0.04   0.07  -0.00     0.35   0.74  -0.05
  19   1     0.00  -0.01   0.00    -0.34   0.52  -0.21    -0.16   0.25  -0.10
  20   1     0.00   0.00   0.00    -0.29  -0.63   0.05     0.16   0.36  -0.03
  21   1    -0.01  -0.01   0.01     0.01   0.01  -0.00     0.00   0.00  -0.00
  22   1    -0.01   0.00   0.00    -0.00   0.00  -0.00    -0.00   0.00  -0.00
  23   1    -0.00  -0.00   0.00    -0.00   0.00  -0.00    -0.00  -0.00  -0.00
  24   1    -0.00  -0.00  -0.00    -0.00  -0.00  -0.00    -0.00   0.00  -0.00
  25   1    -0.00  -0.00   0.00    -0.00  -0.00  -0.00     0.00   0.00   0.00
  26   1     0.00  -0.00   0.00    -0.00  -0.00   0.00     0.00  -0.00   0.00
                     67                     68                     69
                        a                      a                      a 
 Frequencies --  3081.7942              3261.1867              3323.9159
 Red. masses --     1.8661                 1.8038                 1.7961
 Frc consts  --     0.0000                 0.0000                 0.0000
 IR Inten    --    28.7478               153.3998               129.2360
 Raman Activ --     0.0000                 0.0000                 0.0000
 Depolar     --     0.0000                 0.0000                 0.0000
 Atom AN      X      Y      Z        X      Y      Z        X      Y      Z
   1   8     0.00   0.00   0.00     0.00   0.00   0.00    -0.00  -0.00  -0.00
   2   8    -0.00   0.00  -0.00     0.00  -0.00   0.00     0.00  -0.00   0.00
   3   8     0.00  -0.00  -0.00     0.00   0.00   0.00    -0.00  -0.00  -0.00
   4   7     0.00   0.00  -0.00    -0.16  -0.16   0.10     0.04  -0.04   0.24
   5   7     0.00   0.00   0.00     0.00  -0.00  -0.00     0.00  -0.00  -0.00
   6   6    -0.00  -0.00  -0.00    -0.00  -0.00   0.00     0.00  -0.00   0.00
   7   6     0.00   0.00  -0.00    -0.00  -0.01  -0.00     0.00  -0.00   0.00
   8   6    -0.01  -0.00  -0.00     0.00   0.00   0.00    -0.00   0.00   0.00
   9   6    -0.06  -0.13   0.01     0.00   0.00   0.00     0.00   0.00  -0.00
  10   6    -0.09   0.15  -0.06    -0.00   0.00  -0.00     0.00  -0.00   0.00
  11   6     0.00  -0.01   0.00     0.00   0.00  -0.00    -0.00   0.00  -0.00
  12   6     0.06   0.14  -0.01    -0.00  -0.00  -0.00    -0.00  -0.00   0.00
  13   6    -0.00  -0.00  -0.00    -0.00  -0.00  -0.00     0.00   0.00   0.00
  14   6     0.01   0.00   0.00    -0.00  -0.00   0.00    -0.00  -0.00  -0.00
  15   1     0.00   0.01   0.01    -0.00   0.00   0.00    -0.00  -0.00  -0.00
  16   1     0.01  -0.01   0.01     0.00   0.00  -0.00    -0.00   0.00  -0.00
  17   1     0.00   0.00  -0.00    -0.00   0.01  -0.00    -0.00   0.00  -0.01
  18   1     0.21   0.45  -0.03    -0.00  -0.00   0.00    -0.00  -0.00   0.00
  19   1     0.33  -0.49   0.20     0.01  -0.01   0.01    -0.00   0.00  -0.00
  20   1    -0.22  -0.48   0.04     0.00   0.00  -0.00     0.00   0.00  -0.00
  21   1    -0.00  -0.00   0.00     0.65   0.60  -0.39    -0.00  -0.01   0.03
  22   1    -0.00   0.00   0.00    -0.03  -0.00   0.00     0.03  -0.01   0.02
  23   1    -0.00   0.00  -0.00    -0.00  -0.00   0.00    -0.00  -0.00   0.00
  24   1    -0.00  -0.00  -0.00     0.00   0.00   0.00     0.00   0.00   0.00
  25   1    -0.00  -0.00  -0.00     0.00   0.00  -0.00     0.00   0.00  -0.00
  26   1    -0.00   0.00  -0.00    -0.02  -0.01   0.00    -0.18   0.16  -0.94
                     70                     71                     72
                        a                      a                      a 
 Frequencies --  3476.1725              3491.6485              3540.3365
 Red. masses --     1.4486                 1.8678                 2.1723
 Frc consts  --     0.0000                 0.0000                 0.0000
 IR Inten    --    43.4376               138.3596                23.7835
 Raman Activ --     0.0000                 0.0000                 0.0000
 Depolar     --     0.0000                 0.0000                 0.0000
 Atom AN      X      Y      Z        X      Y      Z        X      Y      Z
   1   8     0.00   0.00   0.00     0.00   0.00   0.00     0.00  -0.00  -0.00
   2   8    -0.00  -0.00   0.00    -0.07  -0.23   0.03    -0.00  -0.00   0.00
   3   8     0.00  -0.00   0.00    -0.00   0.00   0.00     0.00  -0.00  -0.00
   4   7     0.00   0.00  -0.00     0.00   0.00  -0.00    -0.00  -0.00  -0.00
   5   7    -0.10   0.09  -0.12    -0.00  -0.00   0.00     0.23   0.19   0.00
   6   6    -0.00   0.00  -0.00    -0.00  -0.00  -0.00     0.00  -0.00   0.00
   7   6     0.00  -0.00   0.00     0.00  -0.00   0.00    -0.00   0.00  -0.00
   8   6    -0.00   0.00   0.00     0.00  -0.00   0.00     0.00   0.00  -0.00
   9   6     0.00  -0.00   0.00    -0.00  -0.00  -0.00    -0.00  -0.00   0.00
  10   6     0.00  -0.00   0.00    -0.00   0.00  -0.00    -0.00  -0.00   0.00
  11   6    -0.00   0.00  -0.01     0.00  -0.00   0.00     0.01   0.00   0.00
  12   6    -0.00   0.00  -0.00     0.00   0.00  -0.00     0.00   0.00   0.00
  13   6    -0.00  -0.00  -0.00    -0.00  -0.00  -0.00    -0.00   0.00   0.00
  14   6     0.00  -0.00   0.00    -0.01  -0.01  -0.00     0.00  -0.00  -0.00
  15   1     0.00   0.00   0.00     0.00   0.00   0.00    -0.00  -0.00  -0.00
  16   1     0.00  -0.00   0.00     0.00  -0.00   0.00     0.00   0.00   0.00
  17   1    -0.00  -0.00  -0.00    -0.00   0.00  -0.00    -0.00  -0.00   0.00
  18   1     0.00   0.00  -0.00    -0.00   0.00  -0.00    -0.00  -0.00  -0.00
  19   1     0.00  -0.00  -0.00     0.00  -0.00   0.00    -0.00  -0.00  -0.00
  20   1    -0.00  -0.00  -0.00    -0.00  -0.00  -0.00    -0.00   0.00  -0.00
  21   1    -0.00  -0.00   0.00    -0.00  -0.00   0.00     0.00   0.00  -0.00
  22   1    -0.00   0.00   0.00     0.00  -0.00   0.00    -0.00   0.00   0.00
  23   1    -0.30  -0.52   0.18     0.01   0.02  -0.01    -0.34  -0.61   0.24
  24   1     0.68   0.17   0.30     0.00   0.00  -0.00    -0.53  -0.12  -0.26
  25   1     0.00   0.01  -0.00     0.31   0.91  -0.13     0.01   0.02  -0.00
  26   1     0.00  -0.00   0.00     0.00  -0.00   0.00     0.00  -0.00   0.00
