      -----------------------------------------------------------      
     |                   =====================                   |     
     |                           x T B                           |     
     |                   =====================                   |     
     |                         S. Grimme                         |     
     |          Mulliken Center for Theoretical Chemistry        |     
     |                    University of Bonn                     |     
      -----------------------------------------------------------      

   * xtb version 6.4.1 (afa7bdf) compiled by 'ehlert@majestix' on 2021-06-10

   xtb is free software: you can redistribute it and/or modify it under
   the terms of the GNU Lesser General Public License as published by
   the Free Software Foundation, either version 3 of the License, or
   (at your option) any later version.
   
   xtb is distributed in the hope that it will be useful,
   but WITHOUT ANY WARRANTY; without even the implied warranty of
   MERCHANTABILITY or FITNESS FOR A PARTICULAR PURPOSE.  See the
   GNU Lesser General Public License for more details.
   
   Cite this work as:
   * C. Bannwarth, E. Caldeweyher, S. Ehlert, A. Hansen, P. Pracht,
     J. Seibert, S. Spicher, S. Grimme, WIREs Comput. Mol. Sci., 2020, 11,
     e01493. DOI: 10.1002/wcms.1493
   
   for GFN2-xTB:
   * C. Bannwarth, S. Ehlert and S. Grimme., J. Chem. Theory Comput., 2019,
     15, 1652-1671. DOI: 10.1021/acs.jctc.8b01176
   for GFN1-xTB:
   * S. Grimme, C. Bannwarth, P. Shushkov, J. Chem. Theory Comput., 2017,
     13, 1989-2009. DOI: 10.1021/acs.jctc.7b00118
   for GFN0-xTB:
   * P. Pracht, E. Caldeweyher, S. Ehlert, S. Grimme, ChemRxiv, 2019, preprint.
     DOI: 10.26434/chemrxiv.8326202.v1
   for GFN-FF:
   * S. Spicher and S. Grimme, Angew. Chem. Int. Ed., 2020, 59, 15665-15673.
     DOI: 10.1002/anie.202004239
   
   for DFT-D4:
   * E. Caldeweyher, C. Bannwarth and S. Grimme, J. Chem. Phys., 2017,
     147, 034112. DOI: 10.1063/1.4993215
   * E. Caldeweyher, S. Ehlert, A. Hansen, H. Neugebauer, S. Spicher,
     C. Bannwarth and S. Grimme, J. Chem. Phys., 2019, 150, 154122.
     DOI: 10.1063/1.5090222
   * E. Caldeweyher, J.-M. Mewes, S. Ehlert and S. Grimme, Phys. Chem. Chem. Phys.
     2020, 22, 8499-8512. DOI: 10.1039/D0CP00502A
   
   for sTDA-xTB:
   * S. Grimme and C. Bannwarth, J. Chem. Phys., 2016, 145, 054103.
     DOI: 10.1063/1.4959605
   
   in the mass-spec context:
   * V. Asgeirsson, C. Bauer and S. Grimme, Chem. Sci., 2017, 8, 4879.
     DOI: 10.1039/c7sc00601b
   * J. Koopman and S. Grimme, ACS Omega 2019, 4, 12, 15120-15133.
     DOI: 10.1021/acsomega.9b02011
   
   for metadynamics refer to:
   * S. Grimme, J. Chem. Theory Comput., 2019, 155, 2847-2862
     DOI: 10.1021/acs.jctc.9b00143
   
   for SPH calculations refer to:
   * S. Spicher and S. Grimme, J. Chem. Theory Comput., 2021, 17, 1701-1714
     DOI: 10.1021/acs.jctc.0c01306
   
   with help from (in alphabetical order)
   P. Atkinson, C. Bannwarth, F. Bohle, G. Brandenburg, E. Caldeweyher
   M. Checinski, S. Dohm, S. Ehlert, S. Ehrlich, I. Gerasimov, J. Koopman
   C. Lavigne, S. Lehtola, F. März, M. Müller, F. Musil, H. Neugebauer
   J. Pisarek, C. Plett, P. Pracht, J. Seibert, P. Shushkov, S. Spicher
   M. Stahn, M. Steiner, T. Strunk, J. Stückrath, T. Rose, and J. Unsleber
   
 * started run on 2021/11/15 at 09:23:07.290     

           -------------------------------------------------
          |                Calculation Setup                |
           -------------------------------------------------

          program call               : xtb 03_2-methoxyphenol.xyz --gfn2 --chrg 0 --uhf 0 --alpb water -P 1
          coordinate file            : 03_2-methoxyphenol.xyz
          omp threads                :                     1
          number of atoms            :                    17
          number of electrons        :                    48
          charge                     :                     0
          spin                       :                   0.0
          first test random number   :      0.23020897785563

   ID    Z sym.   atoms
    1    6 C      1-6, 14
    2    1 H      7, 8, 10-12, 15-17
    3    8 O      9, 13

           -------------------------------------------------
          |                 G F N 2 - x T B                 |
           -------------------------------------------------

        Reference                      10.1021/acs.jctc.8b01176
      * Hamiltonian:
        H0-scaling (s, p, d)           1.850000    2.230000    2.230000
        zeta-weighting                 0.500000
      * Dispersion:
        s8                             2.700000
        a1                             0.520000
        a2                             5.000000
        s9                             5.000000
      * Repulsion:
        kExp                           1.500000    1.000000
        rExp                           1.000000
      * Coulomb:
        alpha                          2.000000
        third order                    shell-resolved
        anisotropic                    true
        a3                             3.000000
        a5                             4.000000
        cn-shift                       1.200000
        cn-exp                         4.000000
        max-rad                        5.000000

      * Solvation model:               ALPB
        Solvent                        water
        Parameter file                 internal GFN2-xTB/ALPB
        Dielectric constant                8.0200E+01
        Reference state                gsolv [1 M gas/solution]
        Free energy shift                  1.0808E-03 Eh       6.7819E-01 kcal/mol
        Temperature                        2.9815E+02 K
        Density                            1.0000E+00 kg/L
        Solvent mass                       1.8000E+01 g/mol
        Interaction kernel             P16
        Born radius scaling (c1)           1.4744E+00
        Born radii integrator          GBOBC
        Born offset                        0.0000E+00 a0       0.0000E+00 AA
        H-bond correction              true
        Ion screening                  false
        Surface tension                    1.0000E-05 Eh       1.5569E+01 dyn/cm
        Grid points                               230 per atom
q/qsh data taken from xtbrestart
CAMM data taken from xtbrestart

          ...................................................
          :                      SETUP                      :
          :.................................................:
          :  # basis functions                  44          :
          :  # atomic orbitals                  44          :
          :  # shells                           26          :
          :  # electrons                        48          :
          :  max. iterations                   250          :
          :  Hamiltonian                  GFN2-xTB          :
          :  restarted?                       true          :
          :  GBSA solvation                   true          :
          :  PC potential                    false          :
          :  electronic temp.          300.0000000     K    :
          :  accuracy                    1.0000000          :
          :  -> integral cutoff          0.2500000E+02      :
          :  -> integral neglect         0.1000000E-07      :
          :  -> SCF convergence          0.1000000E-05 Eh   :
          :  -> wf. convergence          0.1000000E-03 e    :
          :  Broyden damping             0.4000000          :
          ...................................................

 iter      E             dE          RMSdq      gap      omega  full diag
   1    -27.5501634 -0.275502E+02  0.997E-05    4.10       0.0  T
   2    -27.5501634 -0.756977E-10  0.596E-05    4.10     406.7  T
   3    -27.5501634 -0.259988E-10  0.358E-05    4.10     677.5  T

   *** convergence criteria satisfied after 3 iterations ***

         #    Occupation            Energy/Eh            Energy/eV
      -------------------------------------------------------------
         1        2.0000           -0.7233257             -19.6827
       ...           ...                  ...                  ...
        18        2.0000           -0.4682833             -12.7426
        19        2.0000           -0.4654985             -12.6669
        20        2.0000           -0.4460241             -12.1369
        21        2.0000           -0.4369100             -11.8889
        22        2.0000           -0.4263053             -11.6004
        23        2.0000           -0.3943717             -10.7314
        24        2.0000           -0.3710003             -10.0954 (HOMO)
        25                         -0.2202265              -5.9927 (LUMO)
        26                         -0.2138026              -5.8179
        27                         -0.0907665              -2.4699
        28                          0.0023040               0.0627
        29                          0.0762717               2.0755
       ...                                ...                  ...
        44                          0.6481402              17.6368
      -------------------------------------------------------------
                  HL-Gap            0.1507739 Eh            4.1028 eV
             Fermi-level           -0.2956134 Eh           -8.0441 eV

 SCC (total)                   0 d,  0 h,  0 min,  0.009 sec
 SCC setup                      ...        0 min,  0.000 sec (  5.004%)
 Dispersion                     ...        0 min,  0.000 sec (  1.342%)
 classical contributions        ...        0 min,  0.000 sec (  0.274%)
 integral evaluation            ...        0 min,  0.002 sec ( 17.146%)
 iterations                     ...        0 min,  0.002 sec ( 23.934%)
 molecular gradient             ...        0 min,  0.004 sec ( 49.595%)
 printout                       ...        0 min,  0.000 sec (  2.423%)

         :::::::::::::::::::::::::::::::::::::::::::::::::::::
         ::                     SUMMARY                     ::
         :::::::::::::::::::::::::::::::::::::::::::::::::::::
         :: total energy             -27.193661389459 Eh    ::
         :: total w/o Gsasa/hb       -27.189527310743 Eh    ::
         :: gradient norm              0.023168184300 Eh/a0 ::
         :: HOMO-LUMO gap              4.102765599128 eV    ::
         ::.................................................::
         :: SCC energy               -27.550163358278 Eh    ::
         :: -> isotropic ES            0.043626065751 Eh    ::
         :: -> anisotropic ES          0.002213269114 Eh    ::
         :: -> anisotropic XC          0.007471374682 Eh    ::
         :: -> dispersion             -0.012742432770 Eh    ::
         :: -> Gsolv                  -0.009199485636 Eh    ::
         ::    -> Gelec               -0.005065406920 Eh    ::
         ::    -> Gsasa                0.000455183109 Eh    ::
         ::    -> Ghb                 -0.005670021523 Eh    ::
         ::    -> Gshift               0.001080759698 Eh    ::
         :: repulsion energy           0.356470976832 Eh    ::
         :: add. restraining           0.000000000000 Eh    ::
         :: total charge               0.000000000000 e     ::
         :::::::::::::::::::::::::::::::::::::::::::::::::::::

           -------------------------------------------------
          |                Property Printout                |
           -------------------------------------------------

    * Orbital Energies and Occupations

         #    Occupation            Energy/Eh            Energy/eV
      -------------------------------------------------------------
         1        2.0000           -0.7233257             -19.6827
       ...           ...                  ...                  ...
        12        2.0000           -0.5303131             -14.4306
        13        2.0000           -0.5212451             -14.1838
        14        2.0000           -0.5143089             -13.9951
        15        2.0000           -0.4970111             -13.5244
        16        2.0000           -0.4886227             -13.2961
        17        2.0000           -0.4745987             -12.9145
        18        2.0000           -0.4682833             -12.7426
        19        2.0000           -0.4654985             -12.6669
        20        2.0000           -0.4460241             -12.1369
        21        2.0000           -0.4369100             -11.8889
        22        2.0000           -0.4263053             -11.6004
        23        2.0000           -0.3943717             -10.7314
        24        2.0000           -0.3710003             -10.0954 (HOMO)
        25                         -0.2202265              -5.9927 (LUMO)
        26                         -0.2138026              -5.8179
        27                         -0.0907665              -2.4699
        28                          0.0023040               0.0627
        29                          0.0762717               2.0755
        30                          0.1032175               2.8087
        31                          0.1195014               3.2518
        32                          0.1486703               4.0455
        33                          0.1663318               4.5261
        34                          0.1729249               4.7055
        35                          0.1835150               4.9937
       ...                                ...                  ...
        44                          0.6481402              17.6368
      -------------------------------------------------------------
                  HL-Gap            0.1507739 Eh            4.1028 eV
             Fermi-level           -0.2956134 Eh           -8.0441 eV

     #   Z          covCN         q      C6AA      α(0)
     1   6 C        2.913    -0.050    29.251     8.869
     2   6 C        2.911    -0.074    29.855     8.960
     3   6 C        2.858     0.106    25.659     8.303
     4   6 C        2.842     0.120    25.359     8.253
     5   6 C        2.913    -0.065    29.622     8.925
     6   6 C        2.913    -0.049    29.212     8.863
     7   1 H        0.925     0.053     2.282     2.362
     8   1 H        0.925     0.046     2.370     2.407
     9   8 O        1.658    -0.455    21.946     6.324
    10   1 H        0.805     0.370     0.543     1.158
    11   1 H        0.925     0.050     2.318     2.381
    12   1 H        0.925     0.045     2.377     2.411
    13   8 O        1.703    -0.309    19.151     5.908
    14   6 C        3.638     0.020    20.605     6.529
    15   1 H        0.924     0.056     2.249     2.345
    16   1 H        0.924     0.081     1.971     2.195
    17   1 H        0.924     0.056     2.249     2.345

 Mol. C6AA /au·bohr⁶  :       3197.026925
 Mol. C8AA /au·bohr⁸  :      75499.949913
 Mol. α(0) /au        :         88.538586


Wiberg/Mayer (AO) data.
largest (>0.10) Wiberg bond orders for each atom

 ---------------------------------------------------------------------------
     #   Z sym  total        # sym  WBO       # sym  WBO       # sym  WBO
 ---------------------------------------------------------------------------
     1   6 C    3.990 --     6 C    1.458     2 C    1.409    12 H    0.971
     2   6 C    3.985 --     1 C    1.409     3 C    1.407    11 H    0.965
     3   6 C    3.931 --     2 C    1.407     4 C    1.287    13 O    1.041
     4   6 C    3.940 --     5 C    1.410     3 C    1.287     9 O    1.067
     5   6 C    3.986 --     6 C    1.414     4 C    1.410     7 H    0.968
     6   6 C    3.990 --     1 C    1.458     5 C    1.414     8 H    0.970
     7   1 H    0.996 --     5 C    0.968
     8   1 H    0.998 --     6 C    0.970
     9   8 O    2.072 --     4 C    1.067    10 H    0.840
    10   1 H    0.863 --     9 O    0.840
    11   1 H    0.997 --     2 C    0.965
    12   1 H    0.998 --     1 C    0.971
    13   8 O    2.196 --     3 C    1.041    14 C    0.966
    14   6 C    3.929 --    16 H    0.978    17 H    0.977    15 H    0.977
                            13 O    0.966
    15   1 H    0.997 --    14 C    0.977
    16   1 H    0.993 --    14 C    0.978
    17   1 H    0.997 --    14 C    0.977
 ---------------------------------------------------------------------------

Topologies differ in total number of bonds
Writing topology from bond orders to xtbtopo.mol

molecular dipole:
                 x           y           z       tot (Debye)
 q only:        0.822      -0.721      -0.001
   full:        1.016      -0.882      -0.001       3.419
molecular quadrupole (traceless):
                xx          xy          yy          xz          yz          zz
 q only:        6.389       0.316      -2.883      -0.002      -0.003      -3.506
  q+dip:        7.471       0.392      -2.563      -0.003      -0.004      -4.908
   full:        6.851       0.361      -3.567      -0.003      -0.004      -3.284


           -------------------------------------------------
          | TOTAL ENERGY              -27.193661389459 Eh   |
          | GRADIENT NORM               0.023168184300 Eh/α |
          | HOMO-LUMO GAP               4.102765599128 eV   |
           -------------------------------------------------

------------------------------------------------------------------------
 * finished run on 2021/11/15 at 09:23:07.323     
------------------------------------------------------------------------
 total:
 * wall-time:     0 d,  0 h,  0 min,  0.033 sec
 *  cpu-time:     0 d,  0 h,  0 min,  0.016 sec
 * ratio c/w:     0.479 speedup
 SCF:
 * wall-time:     0 d,  0 h,  0 min,  0.009 sec
 *  cpu-time:     0 d,  0 h,  0 min,  0.016 sec
 * ratio c/w:     1.716 speedup

