      -----------------------------------------------------------      
     |                   =====================                   |     
     |                           x T B                           |     
     |                   =====================                   |     
     |                         S. Grimme                         |     
     |          Mulliken Center for Theoretical Chemistry        |     
     |                    University of Bonn                     |     
      -----------------------------------------------------------      

   * xtb version 6.4.1 (afa7bdf) compiled by 'ehlert@majestix' on 2021-06-10

   xtb is free software: you can redistribute it and/or modify it under
   the terms of the GNU Lesser General Public License as published by
   the Free Software Foundation, either version 3 of the License, or
   (at your option) any later version.
   
   xtb is distributed in the hope that it will be useful,
   but WITHOUT ANY WARRANTY; without even the implied warranty of
   MERCHANTABILITY or FITNESS FOR A PARTICULAR PURPOSE.  See the
   GNU Lesser General Public License for more details.
   
   Cite this work as:
   * C. Bannwarth, E. Caldeweyher, S. Ehlert, A. Hansen, P. Pracht,
     J. Seibert, S. Spicher, S. Grimme, WIREs Comput. Mol. Sci., 2020, 11,
     e01493. DOI: 10.1002/wcms.1493
   
   for GFN2-xTB:
   * C. Bannwarth, S. Ehlert and S. Grimme., J. Chem. Theory Comput., 2019,
     15, 1652-1671. DOI: 10.1021/acs.jctc.8b01176
   for GFN1-xTB:
   * S. Grimme, C. Bannwarth, P. Shushkov, J. Chem. Theory Comput., 2017,
     13, 1989-2009. DOI: 10.1021/acs.jctc.7b00118
   for GFN0-xTB:
   * P. Pracht, E. Caldeweyher, S. Ehlert, S. Grimme, ChemRxiv, 2019, preprint.
     DOI: 10.26434/chemrxiv.8326202.v1
   for GFN-FF:
   * S. Spicher and S. Grimme, Angew. Chem. Int. Ed., 2020, 59, 15665-15673.
     DOI: 10.1002/anie.202004239
   
   for DFT-D4:
   * E. Caldeweyher, C. Bannwarth and S. Grimme, J. Chem. Phys., 2017,
     147, 034112. DOI: 10.1063/1.4993215
   * E. Caldeweyher, S. Ehlert, A. Hansen, H. Neugebauer, S. Spicher,
     C. Bannwarth and S. Grimme, J. Chem. Phys., 2019, 150, 154122.
     DOI: 10.1063/1.5090222
   * E. Caldeweyher, J.-M. Mewes, S. Ehlert and S. Grimme, Phys. Chem. Chem. Phys.
     2020, 22, 8499-8512. DOI: 10.1039/D0CP00502A
   
   for sTDA-xTB:
   * S. Grimme and C. Bannwarth, J. Chem. Phys., 2016, 145, 054103.
     DOI: 10.1063/1.4959605
   
   in the mass-spec context:
   * V. Asgeirsson, C. Bauer and S. Grimme, Chem. Sci., 2017, 8, 4879.
     DOI: 10.1039/c7sc00601b
   * J. Koopman and S. Grimme, ACS Omega 2019, 4, 12, 15120-15133.
     DOI: 10.1021/acsomega.9b02011
   
   for metadynamics refer to:
   * S. Grimme, J. Chem. Theory Comput., 2019, 155, 2847-2862
     DOI: 10.1021/acs.jctc.9b00143
   
   for SPH calculations refer to:
   * S. Spicher and S. Grimme, J. Chem. Theory Comput., 2021, 17, 1701-1714
     DOI: 10.1021/acs.jctc.0c01306
   
   with help from (in alphabetical order)
   P. Atkinson, C. Bannwarth, F. Bohle, G. Brandenburg, E. Caldeweyher
   M. Checinski, S. Dohm, S. Ehlert, S. Ehrlich, I. Gerasimov, J. Koopman
   C. Lavigne, S. Lehtola, F. März, M. Müller, F. Musil, H. Neugebauer
   J. Pisarek, C. Plett, P. Pracht, J. Seibert, P. Shushkov, S. Spicher
   M. Stahn, M. Steiner, T. Strunk, J. Stückrath, T. Rose, and J. Unsleber
   
 * started run on 2021/11/15 at 09:23:07.653     

           -------------------------------------------------
          |                Calculation Setup                |
           -------------------------------------------------

          program call               : xtb 07_4-ethylphenol.xyz --gfn2 --chrg 0 --uhf 0 --alpb water -P 1
          coordinate file            : 07_4-ethylphenol.xyz
          omp threads                :                     1
          number of atoms            :                    19
          number of electrons        :                    48
          charge                     :                     0
          spin                       :                   0.0
          first test random number   :      0.23020897785563

   ID    Z sym.   atoms
    1    6 C      1-6, 13, 16
    2    1 H      7, 8, 10-12, 14, 15, 17-19
    3    8 O      9

           -------------------------------------------------
          |                 G F N 2 - x T B                 |
           -------------------------------------------------

        Reference                      10.1021/acs.jctc.8b01176
      * Hamiltonian:
        H0-scaling (s, p, d)           1.850000    2.230000    2.230000
        zeta-weighting                 0.500000
      * Dispersion:
        s8                             2.700000
        a1                             0.520000
        a2                             5.000000
        s9                             5.000000
      * Repulsion:
        kExp                           1.500000    1.000000
        rExp                           1.000000
      * Coulomb:
        alpha                          2.000000
        third order                    shell-resolved
        anisotropic                    true
        a3                             3.000000
        a5                             4.000000
        cn-shift                       1.200000
        cn-exp                         4.000000
        max-rad                        5.000000

      * Solvation model:               ALPB
        Solvent                        water
        Parameter file                 internal GFN2-xTB/ALPB
        Dielectric constant                8.0200E+01
        Reference state                gsolv [1 M gas/solution]
        Free energy shift                  1.0808E-03 Eh       6.7819E-01 kcal/mol
        Temperature                        2.9815E+02 K
        Density                            1.0000E+00 kg/L
        Solvent mass                       1.8000E+01 g/mol
        Interaction kernel             P16
        Born radius scaling (c1)           1.4744E+00
        Born radii integrator          GBOBC
        Born offset                        0.0000E+00 a0       0.0000E+00 AA
        H-bond correction              true
        Ion screening                  false
        Surface tension                    1.0000E-05 Eh       1.5569E+01 dyn/cm
        Grid points                               230 per atom
q/qsh data taken from xtbrestart
CAMM data taken from xtbrestart

          ...................................................
          :                      SETUP                      :
          :.................................................:
          :  # basis functions                  46          :
          :  # atomic orbitals                  46          :
          :  # shells                           28          :
          :  # electrons                        48          :
          :  max. iterations                   250          :
          :  Hamiltonian                  GFN2-xTB          :
          :  restarted?                       true          :
          :  GBSA solvation                   true          :
          :  PC potential                    false          :
          :  electronic temp.          300.0000000     K    :
          :  accuracy                    1.0000000          :
          :  -> integral cutoff          0.2500000E+02      :
          :  -> integral neglect         0.1000000E-07      :
          :  -> SCF convergence          0.1000000E-05 Eh   :
          :  -> wf. convergence          0.1000000E-03 e    :
          :  Broyden damping             0.4000000          :
          ...................................................

 iter      E             dE          RMSdq      gap      omega  full diag
   1    -26.6931814 -0.266932E+02  0.111E-04    4.16       0.0  T
   2    -26.6931814 -0.184315E-10  0.698E-05    4.16     328.9  T
   3    -26.6931814 -0.703437E-12  0.352E-05    4.16     651.2  T

   *** convergence criteria satisfied after 3 iterations ***

         #    Occupation            Energy/Eh            Energy/eV
      -------------------------------------------------------------
         1        2.0000           -0.7042259             -19.1630
       ...           ...                  ...                  ...
        18        2.0000           -0.4579217             -12.4607
        19        2.0000           -0.4426658             -12.0455
        20        2.0000           -0.4316195             -11.7450
        21        2.0000           -0.4246412             -11.5551
        22        2.0000           -0.4157464             -11.3130
        23        2.0000           -0.3997103             -10.8767
        24        2.0000           -0.3749284             -10.2023 (HOMO)
        25                         -0.2221835              -6.0459 (LUMO)
        26                         -0.2115277              -5.7560
        27                         -0.0922118              -2.5092
        28                          0.0652269               1.7749
        29                          0.0898947               2.4462
       ...                                ...                  ...
        46                          0.6378073              17.3556
      -------------------------------------------------------------
                  HL-Gap            0.1527449 Eh            4.1564 eV
             Fermi-level           -0.2985559 Eh           -8.1241 eV

 SCC (total)                   0 d,  0 h,  0 min,  0.008 sec
 SCC setup                      ...        0 min,  0.000 sec (  6.075%)
 Dispersion                     ...        0 min,  0.000 sec (  1.695%)
 classical contributions        ...        0 min,  0.000 sec (  0.299%)
 integral evaluation            ...        0 min,  0.002 sec ( 20.548%)
 iterations                     ...        0 min,  0.002 sec ( 27.812%)
 molecular gradient             ...        0 min,  0.003 sec ( 41.342%)
 printout                       ...        0 min,  0.000 sec (  1.979%)

         :::::::::::::::::::::::::::::::::::::::::::::::::::::
         ::                     SUMMARY                     ::
         :::::::::::::::::::::::::::::::::::::::::::::::::::::
         :: total energy             -26.294705883966 Eh    ::
         :: total w/o Gsasa/hb       -26.289841856395 Eh    ::
         :: gradient norm              0.021171697322 Eh/a0 ::
         :: HOMO-LUMO gap              4.156401206443 eV    ::
         ::.................................................::
         :: SCC energy               -26.693181378968 Eh    ::
         :: -> isotropic ES            0.030544976515 Eh    ::
         :: -> anisotropic ES          0.004927721215 Eh    ::
         :: -> anisotropic XC          0.012380071059 Eh    ::
         :: -> dispersion             -0.014219097904 Eh    ::
         :: -> Gsolv                  -0.009010034631 Eh    ::
         ::    -> Gelec               -0.004146007060 Eh    ::
         ::    -> Gsasa                0.000007667855 Eh    ::
         ::    -> Ghb                 -0.005952455124 Eh    ::
         ::    -> Gshift               0.001080759698 Eh    ::
         :: repulsion energy           0.398447365027 Eh    ::
         :: add. restraining           0.000000000000 Eh    ::
         :: total charge              -0.000000000000 e     ::
         :::::::::::::::::::::::::::::::::::::::::::::::::::::

           -------------------------------------------------
          |                Property Printout                |
           -------------------------------------------------

    * Orbital Energies and Occupations

         #    Occupation            Energy/Eh            Energy/eV
      -------------------------------------------------------------
         1        2.0000           -0.7042259             -19.1630
       ...           ...                  ...                  ...
        12        2.0000           -0.5072093             -13.8019
        13        2.0000           -0.4956613             -13.4876
        14        2.0000           -0.4845866             -13.1863
        15        2.0000           -0.4781395             -13.0108
        16        2.0000           -0.4745027             -12.9119
        17        2.0000           -0.4686321             -12.7521
        18        2.0000           -0.4579217             -12.4607
        19        2.0000           -0.4426658             -12.0455
        20        2.0000           -0.4316195             -11.7450
        21        2.0000           -0.4246412             -11.5551
        22        2.0000           -0.4157464             -11.3130
        23        2.0000           -0.3997103             -10.8767
        24        2.0000           -0.3749284             -10.2023 (HOMO)
        25                         -0.2221835              -6.0459 (LUMO)
        26                         -0.2115277              -5.7560
        27                         -0.0922118              -2.5092
        28                          0.0652269               1.7749
        29                          0.0898947               2.4462
        30                          0.1258633               3.4249
        31                          0.1327045               3.6111
        32                          0.1452606               3.9527
        33                          0.1525863               4.1521
        34                          0.1737356               4.7276
        35                          0.1794082               4.8819
       ...                                ...                  ...
        46                          0.6378073              17.3556
      -------------------------------------------------------------
                  HL-Gap            0.1527449 Eh            4.1564 eV
             Fermi-level           -0.2985559 Eh           -8.1241 eV

     #   Z          covCN         q      C6AA      α(0)
     1   6 C        2.959    -0.000    28.032     8.684
     2   6 C        2.920    -0.044    29.083     8.844
     3   6 C        2.910    -0.076    29.908     8.968
     4   6 C        2.842     0.137    25.001     8.194
     5   6 C        2.910    -0.063    29.555     8.914
     6   6 C        2.920    -0.043    29.079     8.843
     7   1 H        0.925     0.044     2.401     2.423
     8   1 H        0.925     0.038     2.473     2.459
     9   8 O        1.659    -0.468    22.210     6.362
    10   1 H        0.805     0.367     0.549     1.164
    11   1 H        0.925     0.040     2.444     2.445
    12   1 H        0.925     0.039     2.465     2.455
    13   6 C        3.802    -0.062    21.689     6.630
    14   1 H        0.924     0.040     2.448     2.447
    15   1 H        0.924     0.040     2.443     2.444
    16   6 C        3.748    -0.104    22.563     6.775
    17   1 H        0.924     0.042     2.428     2.437
    18   1 H        0.924     0.037     2.496     2.471
    19   1 H        0.924     0.036     2.500     2.473

 Mol. C6AA /au·bohr⁶  :       3701.324421
 Mol. C8AA /au·bohr⁸  :      86950.469616
 Mol. α(0) /au        :         95.431632


Wiberg/Mayer (AO) data.
largest (>0.10) Wiberg bond orders for each atom

 ---------------------------------------------------------------------------
     #   Z sym  total        # sym  WBO       # sym  WBO       # sym  WBO
 ---------------------------------------------------------------------------
     1   6 C    3.987 --     2 C    1.412     6 C    1.404    13 C    1.011
     2   6 C    3.990 --     3 C    1.446     1 C    1.412    12 H    0.969
                             5 C    0.108
     3   6 C    3.986 --     2 C    1.446     4 C    1.376    11 H    0.966
                             6 C    0.106
     4   6 C    3.936 --     3 C    1.376     5 C    1.369     9 O    1.060
     5   6 C    3.988 --     6 C    1.457     4 C    1.369     7 H    0.969
                             2 C    0.108
     6   6 C    3.990 --     5 C    1.457     1 C    1.404     8 H    0.969
                             3 C    0.106
     7   1 H    0.998 --     5 C    0.969
     8   1 H    0.999 --     6 C    0.969
     9   8 O    2.060 --     4 C    1.060    10 H    0.846
    10   1 H    0.865 --     9 O    0.846
    11   1 H    0.998 --     3 C    0.966
    12   1 H    0.998 --     2 C    0.969
    13   6 C    3.996 --     1 C    1.011    16 C    1.002    15 H    0.974
                            14 H    0.974
    14   1 H    0.998 --    13 C    0.974
    15   1 H    0.998 --    13 C    0.974
    16   6 C    3.994 --    13 C    1.002    18 H    0.988    19 H    0.988
                            17 H    0.986
    17   1 H    0.997 --    16 C    0.986
    18   1 H    0.999 --    16 C    0.988
    19   1 H    0.999 --    16 C    0.988
 ---------------------------------------------------------------------------

Topologies differ in total number of bonds
Writing topology from bond orders to xtbtopo.mol

molecular dipole:
                 x           y           z       tot (Debye)
 q only:       -0.232      -0.597      -0.008
   full:       -0.204      -0.748       0.004       1.969
molecular quadrupole (traceless):
                xx          xy          yy          xz          yz          zz
 q only:        1.735      -6.207       0.688       0.500      -0.611      -2.423
  q+dip:        1.705      -7.825       4.130       1.332      -0.799      -5.836
   full:        1.166      -7.903       2.362       0.731      -0.796      -3.528


           -------------------------------------------------
          | TOTAL ENERGY              -26.294705883966 Eh   |
          | GRADIENT NORM               0.021171697322 Eh/α |
          | HOMO-LUMO GAP               4.156401206443 eV   |
           -------------------------------------------------

------------------------------------------------------------------------
 * finished run on 2021/11/15 at 09:23:07.684     
------------------------------------------------------------------------
 total:
 * wall-time:     0 d,  0 h,  0 min,  0.031 sec
 *  cpu-time:     0 d,  0 h,  0 min,  0.016 sec
 * ratio c/w:     0.510 speedup
 SCF:
 * wall-time:     0 d,  0 h,  0 min,  0.008 sec
 *  cpu-time:     0 d,  0 h,  0 min,  0.016 sec
 * ratio c/w:     1.962 speedup

