      -----------------------------------------------------------      
     |                   =====================                   |     
     |                           x T B                           |     
     |                   =====================                   |     
     |                         S. Grimme                         |     
     |          Mulliken Center for Theoretical Chemistry        |     
     |                    University of Bonn                     |     
      -----------------------------------------------------------      

   * xtb version 6.4.1 (afa7bdf) compiled by 'ehlert@majestix' on 2021-06-10

   xtb is free software: you can redistribute it and/or modify it under
   the terms of the GNU Lesser General Public License as published by
   the Free Software Foundation, either version 3 of the License, or
   (at your option) any later version.
   
   xtb is distributed in the hope that it will be useful,
   but WITHOUT ANY WARRANTY; without even the implied warranty of
   MERCHANTABILITY or FITNESS FOR A PARTICULAR PURPOSE.  See the
   GNU Lesser General Public License for more details.
   
   Cite this work as:
   * C. Bannwarth, E. Caldeweyher, S. Ehlert, A. Hansen, P. Pracht,
     J. Seibert, S. Spicher, S. Grimme, WIREs Comput. Mol. Sci., 2020, 11,
     e01493. DOI: 10.1002/wcms.1493
   
   for GFN2-xTB:
   * C. Bannwarth, S. Ehlert and S. Grimme., J. Chem. Theory Comput., 2019,
     15, 1652-1671. DOI: 10.1021/acs.jctc.8b01176
   for GFN1-xTB:
   * S. Grimme, C. Bannwarth, P. Shushkov, J. Chem. Theory Comput., 2017,
     13, 1989-2009. DOI: 10.1021/acs.jctc.7b00118
   for GFN0-xTB:
   * P. Pracht, E. Caldeweyher, S. Ehlert, S. Grimme, ChemRxiv, 2019, preprint.
     DOI: 10.26434/chemrxiv.8326202.v1
   for GFN-FF:
   * S. Spicher and S. Grimme, Angew. Chem. Int. Ed., 2020, 59, 15665-15673.
     DOI: 10.1002/anie.202004239
   
   for DFT-D4:
   * E. Caldeweyher, C. Bannwarth and S. Grimme, J. Chem. Phys., 2017,
     147, 034112. DOI: 10.1063/1.4993215
   * E. Caldeweyher, S. Ehlert, A. Hansen, H. Neugebauer, S. Spicher,
     C. Bannwarth and S. Grimme, J. Chem. Phys., 2019, 150, 154122.
     DOI: 10.1063/1.5090222
   * E. Caldeweyher, J.-M. Mewes, S. Ehlert and S. Grimme, Phys. Chem. Chem. Phys.
     2020, 22, 8499-8512. DOI: 10.1039/D0CP00502A
   
   for sTDA-xTB:
   * S. Grimme and C. Bannwarth, J. Chem. Phys., 2016, 145, 054103.
     DOI: 10.1063/1.4959605
   
   in the mass-spec context:
   * V. Asgeirsson, C. Bauer and S. Grimme, Chem. Sci., 2017, 8, 4879.
     DOI: 10.1039/c7sc00601b
   * J. Koopman and S. Grimme, ACS Omega 2019, 4, 12, 15120-15133.
     DOI: 10.1021/acsomega.9b02011
   
   for metadynamics refer to:
   * S. Grimme, J. Chem. Theory Comput., 2019, 155, 2847-2862
     DOI: 10.1021/acs.jctc.9b00143
   
   for SPH calculations refer to:
   * S. Spicher and S. Grimme, J. Chem. Theory Comput., 2021, 17, 1701-1714
     DOI: 10.1021/acs.jctc.0c01306
   
   with help from (in alphabetical order)
   P. Atkinson, C. Bannwarth, F. Bohle, G. Brandenburg, E. Caldeweyher
   M. Checinski, S. Dohm, S. Ehlert, S. Ehrlich, I. Gerasimov, J. Koopman
   C. Lavigne, S. Lehtola, F. März, M. Müller, F. Musil, H. Neugebauer
   J. Pisarek, C. Plett, P. Pracht, J. Seibert, P. Shushkov, S. Spicher
   M. Stahn, M. Steiner, T. Strunk, J. Stückrath, T. Rose, and J. Unsleber
   
 * started run on 2021/11/15 at 09:36:14.076     

           -------------------------------------------------
          |                Calculation Setup                |
           -------------------------------------------------

          program call               : xtb 15_2,5-dimethylphenol.xyz --gfn2 --chrg 0 --uhf 0 --alpb water --ohess -P 1
          coordinate file            : 15_2,5-dimethylphenol.xyz
          omp threads                :                     1
          number of atoms            :                    19
          number of electrons        :                    48
          charge                     :                     0
          spin                       :                   0.0
          first test random number   :      0.24436408689755

   ID    Z sym.   atoms
    1    6 C      1-6, 12, 16
    2    1 H      7, 9-11, 13-15, 17-19
    3    8 O      8

           -------------------------------------------------
          |                 G F N 2 - x T B                 |
           -------------------------------------------------

        Reference                      10.1021/acs.jctc.8b01176
      * Hamiltonian:
        H0-scaling (s, p, d)           1.850000    2.230000    2.230000
        zeta-weighting                 0.500000
      * Dispersion:
        s8                             2.700000
        a1                             0.520000
        a2                             5.000000
        s9                             5.000000
      * Repulsion:
        kExp                           1.500000    1.000000
        rExp                           1.000000
      * Coulomb:
        alpha                          2.000000
        third order                    shell-resolved
        anisotropic                    true
        a3                             3.000000
        a5                             4.000000
        cn-shift                       1.200000
        cn-exp                         4.000000
        max-rad                        5.000000

      * Solvation model:               ALPB
        Solvent                        water
        Parameter file                 internal GFN2-xTB/ALPB
        Dielectric constant                8.0200E+01
        Reference state                gsolv [1 M gas/solution]
        Free energy shift                  1.0808E-03 Eh       6.7819E-01 kcal/mol
        Temperature                        2.9815E+02 K
        Density                            1.0000E+00 kg/L
        Solvent mass                       1.8000E+01 g/mol
        Interaction kernel             P16
        Born radius scaling (c1)           1.4744E+00
        Born radii integrator          GBOBC
        Born offset                        0.0000E+00 a0       0.0000E+00 AA
        H-bond correction              true
        Ion screening                  false
        Surface tension                    1.0000E-05 Eh       1.5569E+01 dyn/cm
        Grid points                               230 per atom

          ...................................................
          :                      SETUP                      :
          :.................................................:
          :  # basis functions                  46          :
          :  # atomic orbitals                  46          :
          :  # shells                           28          :
          :  # electrons                        48          :
          :  max. iterations                   250          :
          :  Hamiltonian                  GFN2-xTB          :
          :  restarted?                      false          :
          :  GBSA solvation                   true          :
          :  PC potential                    false          :
          :  electronic temp.          300.0000000     K    :
          :  accuracy                    1.0000000          :
          :  -> integral cutoff          0.2500000E+02      :
          :  -> integral neglect         0.1000000E-07      :
          :  -> SCF convergence          0.1000000E-05 Eh   :
          :  -> wf. convergence          0.1000000E-03 e    :
          :  Broyden damping             0.4000000          :
          ...................................................

 iter      E             dE          RMSdq      gap      omega  full diag
   1    -26.6835811 -0.266836E+02  0.398E+00    4.23       0.0  T
   2    -26.6956656 -0.120844E-01  0.234E+00    4.27       1.0  T
   3    -26.6911308  0.453475E-02  0.910E-01    4.17       1.0  T
   4    -26.6981753 -0.704444E-02  0.195E-01    4.21       1.0  T
   5    -26.6983495 -0.174213E-03  0.740E-02    4.24       1.0  T
   6    -26.6983665 -0.170441E-04  0.391E-02    4.23       1.0  T
   7    -26.6983703 -0.378581E-05  0.125E-02    4.24       1.8  T
   8    -26.6983708 -0.476812E-06  0.398E-03    4.24       5.8  T
   9    -26.6983708 -0.625888E-08  0.205E-03    4.24      11.2  T
  10    -26.6983708 -0.344637E-07  0.584E-04    4.24      39.3  T
  11    -26.6983708 -0.101635E-08  0.244E-04    4.24      94.0  T

   *** convergence criteria satisfied after 11 iterations ***

         #    Occupation            Energy/Eh            Energy/eV
      -------------------------------------------------------------
         1        2.0000           -0.7011748             -19.0799
       ...           ...                  ...                  ...
        18        2.0000           -0.4648854             -12.6502
        19        2.0000           -0.4452506             -12.1159
        20        2.0000           -0.4375491             -11.9063
        21        2.0000           -0.4274848             -11.6325
        22        2.0000           -0.4169329             -11.3453
        23        2.0000           -0.3861955             -10.5089
        24        2.0000           -0.3716776             -10.1139 (HOMO)
        25                         -0.2160249              -5.8783 (LUMO)
        26                         -0.2077978              -5.6545
        27                         -0.0892146              -2.4277
        28                          0.0626395               1.7045
        29                          0.0883599               2.4044
       ...                                ...                  ...
        46                          0.6315908              17.1865
      -------------------------------------------------------------
                  HL-Gap            0.1556527 Eh            4.2355 eV
             Fermi-level           -0.2938513 Eh           -7.9961 eV

 SCC (total)                   0 d,  0 h,  0 min,  0.010 sec
 SCC setup                      ...        0 min,  0.000 sec (  4.455%)
 Dispersion                     ...        0 min,  0.000 sec (  1.335%)
 classical contributions        ...        0 min,  0.000 sec (  0.238%)
 integral evaluation            ...        0 min,  0.002 sec ( 15.903%)
 iterations                     ...        0 min,  0.004 sec ( 44.228%)
 molecular gradient             ...        0 min,  0.003 sec ( 32.223%)
 printout                       ...        0 min,  0.000 sec (  1.446%)

         :::::::::::::::::::::::::::::::::::::::::::::::::::::
         ::                     SUMMARY                     ::
         :::::::::::::::::::::::::::::::::::::::::::::::::::::
         :: total energy             -26.299062557553 Eh    ::
         :: total w/o Gsasa/hb       -26.295893035953 Eh    ::
         :: gradient norm              0.020331193344 Eh/a0 ::
         :: HOMO-LUMO gap              4.235526265942 eV    ::
         ::.................................................::
         :: SCC energy               -26.698370814954 Eh    ::
         :: -> isotropic ES            0.030866223875 Eh    ::
         :: -> anisotropic ES          0.004642903755 Eh    ::
         :: -> anisotropic XC          0.011751532316 Eh    ::
         :: -> dispersion             -0.014364023827 Eh    ::
         :: -> Gsolv                  -0.007428476894 Eh    ::
         ::    -> Gelec               -0.004258955294 Eh    ::
         ::    -> Gsasa               -0.000044559310 Eh    ::
         ::    -> Ghb                 -0.004205721988 Eh    ::
         ::    -> Gshift               0.001080759698 Eh    ::
         :: repulsion energy           0.399287851224 Eh    ::
         :: add. restraining           0.000000000000 Eh    ::
         :: total charge              -0.000000000000 e     ::
         :::::::::::::::::::::::::::::::::::::::::::::::::::::

      ----------------------------------------------------------- 
     |                   =====================                   |
     |                        A N C O P T                        |
     |                   =====================                   |
     |               Approximate Normal Coordinate               |
     |                Rational Function Optimizer                |
      ----------------------------------------------------------- 

          ...................................................
          :                      SETUP                      :
          :.................................................:
          :   optimization level            normal          :
          :   max. optcycles                   200          :
          :   ANC micro-cycles                  20          :
          :   degrees of freedom                51          :
          :.................................................:
          :   RF solver                   davidson          :
          :   write xtbopt.log                true          :
          :   linear?                        false          :
          :   energy convergence         0.5000000E-05 Eh   :
          :   grad. convergence          0.1000000E-02 Eh/α :
          :   maximium RF displ.         1.0000000          :
          :   Hlow (freq-cutoff)         0.1000000E-01      :
          :   Hmax (freq-cutoff)         5.0000000          :
          :   S6 in model hess.         20.0000000          :
          ...................................................

generating ANC from model Hessian ...
Using Lindh-Hessian (1995)
 Shifting diagonal of input Hessian by   7.625634819857832E-003
 Lowest  eigenvalues of input Hessian
    0.000000    0.000000    0.000000    0.000000    0.000000    0.000000
    0.010000    0.013548    0.015858    0.017027    0.018862    0.020925
    0.023729    0.026208    0.039827    0.040722    0.046731    0.050405
 Highest eigenvalues
    1.436066    1.595631    1.679939    1.852746    1.966711    2.011336
 

........................................................................
.............................. CYCLE    1 ..............................
........................................................................
   1    -26.6983708 -0.266984E+02  0.113E-04    4.24       0.0  T
   2    -26.6983708 -0.347242E-10  0.757E-05    4.24     303.2  T
   3    -26.6983708 -0.780176E-11  0.475E-05    4.24     483.1  T
     SCC iter.                  ...        0 min,  0.002 sec
     gradient                   ...        0 min,  0.003 sec
 * total energy  :   -26.2990626 Eh     change       -0.4814318E-09 Eh
   gradient norm :     0.0203311 Eh/α   predicted     0.0000000E+00 (-100.00%)
   displ. norm   :     0.1495599 α      lambda       -0.1721835E-02
   maximum displ.:     0.1172557 α      in ANC's #9, #10, #26, ...

........................................................................
.............................. CYCLE    2 ..............................
........................................................................
   1    -26.7151706 -0.267152E+02  0.132E-01    4.29       0.0  T
   2    -26.7151762 -0.556244E-05  0.776E-02    4.30       1.0  T
   3    -26.7151697  0.645872E-05  0.302E-02    4.30       1.0  T
   4    -26.7151783 -0.854179E-05  0.330E-03    4.30       6.9  T
   5    -26.7151783 -0.414953E-07  0.187E-03    4.30      12.3  T
   6    -26.7151783 -0.458068E-08  0.985E-04    4.30      23.3  T
   7    -26.7151783 -0.411320E-08  0.314E-04    4.30      73.0  T
     SCC iter.                  ...        0 min,  0.003 sec
     gradient                   ...        0 min,  0.003 sec
 * total energy  :   -26.3001217 Eh     change       -0.1059170E-02 Eh
   gradient norm :     0.0076360 Eh/α   predicted    -0.8801772E-03 ( -16.90%)
   displ. norm   :     0.0488268 α      lambda       -0.1443571E-03
   maximum displ.:     0.0387033 α      in ANC's #9, #10, #7, ...

........................................................................
.............................. CYCLE    3 ..............................
........................................................................
   1    -26.7198544 -0.267199E+02  0.456E-02    4.31       0.0  T
   2    -26.7198561 -0.169641E-05  0.261E-02    4.31       1.0  T
   3    -26.7198554  0.641168E-06  0.136E-02    4.31       1.7  T
   4    -26.7198566 -0.121151E-05  0.162E-03    4.31      14.2  T
   5    -26.7198566 -0.133693E-07  0.686E-04    4.31      33.5  T
   6    -26.7198566 -0.231814E-08  0.402E-04    4.31      57.1  T
     SCC iter.                  ...        0 min,  0.003 sec
     gradient                   ...        0 min,  0.003 sec
 * total energy  :   -26.3001999 Eh     change       -0.7817200E-04 Eh
   gradient norm :     0.0028292 Eh/α   predicted    -0.7240326E-04 (  -7.38%)
   displ. norm   :     0.0087545 α      lambda       -0.7583357E-05
   maximum displ.:     0.0060396 α      in ANC's #7, #5, #9, ...

........................................................................
.............................. CYCLE    4 ..............................
........................................................................
   1    -26.7198631 -0.267199E+02  0.859E-03    4.31       0.0  T
   2    -26.7198634 -0.237375E-06  0.498E-03    4.31       4.6  T
   3    -26.7198634 -0.510546E-07  0.297E-03    4.31       7.7  T
   4    -26.7198634 -0.223924E-07  0.593E-04    4.31      38.7  T
   5    -26.7198634 -0.161570E-08  0.223E-04    4.31     102.8  T
     SCC iter.                  ...        0 min,  0.002 sec
     gradient                   ...        0 min,  0.003 sec
 * total energy  :   -26.3002056 Eh     change       -0.5724829E-05 Eh
   gradient norm :     0.0012602 Eh/α   predicted    -0.4058187E-05 ( -29.11%)
   displ. norm   :     0.0107156 α      lambda       -0.2889288E-05
   maximum displ.:     0.0072201 α      in ANC's #7, #5, #1, ...

........................................................................
.............................. CYCLE    5 ..............................
........................................................................
   1    -26.7194517 -0.267195E+02  0.862E-03    4.31       0.0  T
   2    -26.7194520 -0.336641E-06  0.526E-03    4.31       4.4  T
   3    -26.7194521 -0.927812E-07  0.308E-03    4.31       7.5  T
   4    -26.7194521 -0.129291E-07  0.696E-04    4.31      33.0  T
   5    -26.7194521 -0.226242E-08  0.269E-04    4.31      85.4  T
     SCC iter.                  ...        0 min,  0.002 sec
     gradient                   ...        0 min,  0.003 sec
 * total energy  :   -26.3002071 Eh     change       -0.1492878E-05 Eh
   gradient norm :     0.0006800 Eh/α   predicted    -0.1630365E-05 (   9.21%)
   displ. norm   :     0.0026810 α      lambda       -0.4640997E-06
   maximum displ.:     0.0018393 α      in ANC's #7, #5, #26, ...

   *** GEOMETRY OPTIMIZATION CONVERGED AFTER 5 ITERATIONS ***

------------------------------------------------------------------------
 total energy gain   :        -0.0011446 Eh       -0.7182 kcal/mol
 total RMSD          :         0.0462176 a0        0.0245 Å
 total power (kW/mol):        -0.6010084 (step)  -68.6163 (real)
------------------------------------------------------------------------

 ANCopt (total)                0 d,  0 h,  0 min,  0.044 sec
 optimizer setup                ...        0 min,  0.000 sec (  0.461%)
 model hessian                  ...        0 min,  0.003 sec (  7.194%)
 ANC generation                 ...        0 min,  0.000 sec (  0.838%)
 coordinate transformation      ...        0 min,  0.000 sec (  0.090%)
 single point calculation       ...        0 min,  0.038 sec ( 87.209%)
 optimization log               ...        0 min,  0.001 sec (  2.707%)
 hessian update                 ...        0 min,  0.000 sec (  0.099%)
 rational function              ...        0 min,  0.000 sec (  0.685%)

================
 final structure:
================
19
 xtb: 6.4.1 (afa7bdf)
C         1.12427584983713   -1.31078175405104   -0.00497859514278
C        -0.23850465733668   -1.54978827862970   -0.00079464778416
C        -1.15970403948816   -0.51367158274864    0.00132334257262
C        -0.66929561539552    0.79599633995510   -0.00058803458010
C         0.69841074415839    1.03433363261931   -0.00457300041191
C         1.61016435877388   -0.01080025777937   -0.00716953438340
H         1.03467750919371    2.06042136942418   -0.00648850287622
O        -1.49228980827971    1.88582291422742    0.00001151929991
H        -2.41890743689855    1.60476260374547    0.00026604935401
H        -0.59795366405631   -2.56879907287957   -0.00043622923486
H         1.81339935378334   -2.14224284111648   -0.00745113255353
C        -2.63801365880407   -0.78713368430881    0.00434290995972
H        -3.11173233279053   -0.36458675675425    0.89063893827853
H        -3.11493002585685   -0.36874655400788   -0.88222250438771
H        -2.81544144449270   -1.85882599739261    0.00709870688602
C         3.08161815127970    0.27351134291231    0.00540522979127
H         3.32306248560256    1.07061631007223   -0.69397209086843
H         3.38952269010449    0.59605326231047    0.99948104940159
H         3.64920054066588   -0.61468399559814   -0.25852647332057
 
 Bond Distances (Angstroems)
 ---------------------------
C1-C2=1.3836         C1-C6=1.3878         C1-H11=1.0799        C2-C1=1.3836         C2-C3=1.3864         C2-H10=1.0805        
C3-C2=1.3864         C3-C4=1.3985         C3-C12=1.5034        C4-C3=1.3985         C4-C5=1.3883         C4-O8=1.3657         
C5-C4=1.3883         C5-C6=1.3869         C5-H7=1.0798         C6-C1=1.3878         C6-C5=1.3869         C6-C16=1.4987        
H7-C5=1.0798         O8-C4=1.3657         O8-H9=0.9683         H9-O8=0.9683         H10-C2=1.0805        H11-C1=1.0799        
C12-C3=1.5034        C12-H13=1.0902       C12-H14=1.0902       C12-H15=1.0863       H13-C12=1.0902       H14-C12=1.0902       
H15-C12=1.0863       C16-C6=1.4987        C16-H17=1.0876       C16-H18=1.0895       C16-H19=1.0866       H17-C16=1.0876       
H18-C16=1.0895       H19-C16=1.0866       
 C  H  Rav=1.0856 sigma=0.0041  Rmin=1.0798  Rmax=1.0902     9
 C  C  Rav=1.4167 sigma=0.0489  Rmin=1.3836  Rmax=1.5034     8
 O  H  Rav=0.9683 sigma=0.0000  Rmin=0.9683  Rmax=0.9683     1
 O  C  Rav=1.3657 sigma=0.0000  Rmin=1.3657  Rmax=1.3657     1
 
 selected bond angles (degree)
 --------------------
C6-C1-C2=120.44                H11-C1-C2=119.71               H11-C1-C6=119.85               C3-C2-C1=121.69                
H10-C2-C1=119.38               H10-C2-C3=118.93               C4-C3-C2=117.83                C12-C3-C2=121.16               
C12-C3-C4=121.01               C5-C4-C3=120.41                O8-C4-C3=122.41                O8-C4-C5=117.17                
C6-C5-C4=121.22                H7-C5-C4=118.03                H7-C5-C6=120.75                C5-C6-C1=118.40                
C16-C6-C1=121.43               C16-C6-C5=120.16               H9-O8-C4=110.19                
 
 selected dihedral angles (degree)
 ---------------------------------
C3-C2-C1-C6=  0.00            C3-C2-C1-H11=180.06           H10-C2-C1-C6=179.92           H10-C2-C1-H11=359.98          
C4-C3-C2-C1=  0.00            C4-C3-C2-H10=180.06           C12-C3-C2-C1=179.93           C12-C3-C2-H10=  0.00          
C5-C4-C3-C2=  0.00            C5-C4-C3-C12=180.06           O8-C4-C3-C2=179.94            O8-C4-C3-C12=  0.00           
C6-C5-C4-C3=  0.00            C6-C5-C4-O8=180.08            H7-C5-C4-C3=179.97            H7-C5-C4-O8=  0.03            
C5-C6-C1-C2=  0.02            C5-C6-C1-H11=179.97           C16-C6-C1-C2=179.23           C16-C6-C1-H11=359.18          
C1-C6-C5-C4=359.97            C1-C6-C5-H7=180.02            C16-C6-C5-C4=180.75           C16-C6-C5-H7=  0.80           
H9-O8-C4-C3=359.90            H9-O8-C4-C5=179.83            
           -------------------------------------------------
          |                Final Singlepoint                |
           -------------------------------------------------

          ...................................................
          :                      SETUP                      :
          :.................................................:
          :  # basis functions                  46          :
          :  # atomic orbitals                  46          :
          :  # shells                           28          :
          :  # electrons                        48          :
          :  max. iterations                   250          :
          :  Hamiltonian                  GFN2-xTB          :
          :  restarted?                      false          :
          :  GBSA solvation                   true          :
          :  PC potential                    false          :
          :  electronic temp.          300.0000000     K    :
          :  accuracy                    1.0000000          :
          :  -> integral cutoff          0.2500000E+02      :
          :  -> integral neglect         0.1000000E-07      :
          :  -> SCF convergence          0.1000000E-05 Eh   :
          :  -> wf. convergence          0.1000000E-03 e    :
          :  Broyden damping             0.4000000          :
          ...................................................

 iter      E             dE          RMSdq      gap      omega  full diag
   1    -26.7194521 -0.267195E+02  0.940E-05    4.31       0.0  T
   2    -26.7194521 -0.112799E-10  0.591E-05    4.31     388.0  T
   3    -26.7194521  0.532907E-13  0.318E-05    4.31     722.3  T

   *** convergence criteria satisfied after 3 iterations ***

         #    Occupation            Energy/Eh            Energy/eV
      -------------------------------------------------------------
         1        2.0000           -0.7026125             -19.1191
       ...           ...                  ...                  ...
        18        2.0000           -0.4643943             -12.6368
        19        2.0000           -0.4447692             -12.1028
        20        2.0000           -0.4386343             -11.9358
        21        2.0000           -0.4262440             -11.5987
        22        2.0000           -0.4160050             -11.3201
        23        2.0000           -0.3865203             -10.5178
        24        2.0000           -0.3713172             -10.1041 (HOMO)
        25                         -0.2129320              -5.7942 (LUMO)
        26                         -0.2048674              -5.5747
        27                         -0.0831766              -2.2634
        28                          0.0700449               1.9060
        29                          0.1014603               2.7609
       ...                                ...                  ...
        46                          0.6584943              17.9185
      -------------------------------------------------------------
                  HL-Gap            0.1583852 Eh            4.3099 eV
             Fermi-level           -0.2921246 Eh           -7.9491 eV

 SCC (total)                   0 d,  0 h,  0 min,  0.007 sec
 SCC setup                      ...        0 min,  0.000 sec (  5.064%)
 Dispersion                     ...        0 min,  0.000 sec (  0.631%)
 classical contributions        ...        0 min,  0.000 sec (  0.224%)
 integral evaluation            ...        0 min,  0.001 sec ( 20.667%)
 iterations                     ...        0 min,  0.002 sec ( 25.464%)
 molecular gradient             ...        0 min,  0.003 sec ( 45.546%)
 printout                       ...        0 min,  0.000 sec (  2.098%)

         :::::::::::::::::::::::::::::::::::::::::::::::::::::
         ::                     SUMMARY                     ::
         :::::::::::::::::::::::::::::::::::::::::::::::::::::
         :: total energy             -26.300207118311 Eh    ::
         :: total w/o Gsasa/hb       -26.296925504632 Eh    ::
         :: gradient norm              0.000677869362 Eh/a0 ::
         :: HOMO-LUMO gap              4.309879544236 eV    ::
         ::.................................................::
         :: SCC energy               -26.719452106887 Eh    ::
         :: -> isotropic ES            0.030816310012 Eh    ::
         :: -> anisotropic ES          0.004352055952 Eh    ::
         :: -> anisotropic XC          0.011126574226 Eh    ::
         :: -> dispersion             -0.014451381687 Eh    ::
         :: -> Gsolv                  -0.007545934593 Eh    ::
         ::    -> Gelec               -0.004264320914 Eh    ::
         ::    -> Gsasa               -0.000049807102 Eh    ::
         ::    -> Ghb                 -0.004312566275 Eh    ::
         ::    -> Gshift               0.001080759698 Eh    ::
         :: repulsion energy           0.419223722472 Eh    ::
         :: add. restraining           0.000000000000 Eh    ::
         :: total charge              -0.000000000000 e     ::
         :::::::::::::::::::::::::::::::::::::::::::::::::::::

           ------------------------------------------------- 
          |                Numerical Hessian                |
           ------------------------------------------------- 
step length          :   0.00500
SCC accuracy         :   0.30000
Hessian scale factor :   1.00000
frozen atoms in %    :   0.00000    0
RMS gradient         :   0.00068
estimated CPU  time      0.01 min
estimated wall time      0.02 min

writing file <hessian>.

 projected vibrational frequencies (cm⁻¹)
eigval :       -0.00    -0.00    -0.00    -0.00     0.00     0.00
eigval :      -20.83   107.73   137.67   212.21   278.82   286.49
eigval :      296.29   333.95   420.93   423.45   481.59   543.40
eigval :      555.38   662.00   722.63   783.25   812.20   876.58
eigval :      909.51   959.02  1002.24  1019.42  1027.63  1030.31
eigval :     1098.50  1134.98  1179.87  1211.00  1267.02  1304.41
eigval :     1338.09  1396.04  1398.98  1424.78  1475.52  1478.50
eigval :     1485.50  1486.75  1505.74  1582.72  1614.44  2988.56
eigval :     2998.58  3003.55  3031.93  3045.44  3053.85  3066.86
eigval :     3081.14  3089.51  3466.83
           -------------------------------------------------
          |                Property Printout                |
           -------------------------------------------------

    * Orbital Energies and Occupations

         #    Occupation            Energy/Eh            Energy/eV
      -------------------------------------------------------------
         1        2.0000           -0.7026124             -19.1191
       ...           ...                  ...                  ...
        12        2.0000           -0.5032835             -13.6950
        13        2.0000           -0.4896105             -13.3230
        14        2.0000           -0.4823104             -13.1243
        15        2.0000           -0.4817293             -13.1085
        16        2.0000           -0.4742386             -12.9047
        17        2.0000           -0.4677915             -12.7293
        18        2.0000           -0.4643944             -12.6368
        19        2.0000           -0.4447693             -12.1028
        20        2.0000           -0.4386344             -11.9358
        21        2.0000           -0.4262441             -11.5987
        22        2.0000           -0.4160051             -11.3201
        23        2.0000           -0.3865204             -10.5178
        24        2.0000           -0.3713173             -10.1041 (HOMO)
        25                         -0.2129321              -5.7942 (LUMO)
        26                         -0.2048675              -5.5747
        27                         -0.0831767              -2.2634
        28                          0.0700449               1.9060
        29                          0.1014602               2.7609
        30                          0.1178220               3.2061
        31                          0.1513103               4.1174
        32                          0.1601554               4.3580
        33                          0.1699928               4.6257
        34                          0.1895246               5.1572
        35                          0.2054131               5.5896
       ...                                ...                  ...
        46                          0.6584941              17.9185
      -------------------------------------------------------------
                  HL-Gap            0.1583852 Eh            4.3099 eV
             Fermi-level           -0.2921247 Eh           -7.9491 eV

     #   Z          covCN         q      C6AA      α(0)
     1   6 C        2.923    -0.061    29.507     8.908
     2   6 C        2.925    -0.050    29.233     8.867
     3   6 C        2.963    -0.029    28.731     8.792
     4   6 C        2.849     0.131    25.134     8.217
     5   6 C        2.925    -0.075    29.872     8.963
     6   6 C        2.966     0.009    27.804     8.649
     7   1 H        0.926     0.040     2.443     2.444
     8   8 O        1.659    -0.458    21.999     6.332
     9   1 H        0.805     0.356     0.574     1.190
    10   1 H        0.926     0.035     2.523     2.484
    11   1 H        0.926     0.032     2.565     2.504
    12   6 C        3.756    -0.119    22.831     6.813
    13   1 H        0.925     0.051     2.302     2.373
    14   1 H        0.925     0.051     2.303     2.373
    15   1 H        0.925     0.051     2.305     2.374
    16   6 C        3.758    -0.121    22.876     6.819
    17   1 H        0.925     0.051     2.302     2.373
    18   1 H        0.925     0.056     2.246     2.344
    19   1 H        0.925     0.048     2.346     2.395

 Mol. C6AA /au·bohr⁶  :       3684.888486
 Mol. C8AA /au·bohr⁸  :      86793.533813
 Mol. α(0) /au        :         95.212046


Wiberg/Mayer (AO) data.
largest (>0.10) Wiberg bond orders for each atom

 ---------------------------------------------------------------------------
     #   Z sym  total        # sym  WBO       # sym  WBO       # sym  WBO
 ---------------------------------------------------------------------------
     1   6 C    3.990 --     2 C    1.437     6 C    1.408    11 H    0.969
     2   6 C    3.991 --     1 C    1.437     3 C    1.425    10 H    0.968
                             5 C    0.103
     3   6 C    3.986 --     2 C    1.425     4 C    1.339    12 C    1.023
                             6 C    0.100
     4   6 C    3.936 --     5 C    1.387     3 C    1.339     8 O    1.063
     5   6 C    3.986 --     6 C    1.415     4 C    1.387     7 H    0.967
                             2 C    0.103
     6   6 C    3.989 --     5 C    1.415     1 C    1.408    16 C    1.026
                             3 C    0.100
     7   1 H    0.998 --     5 C    0.967
     8   8 O    2.072 --     4 C    1.063     9 H    0.847
     9   1 H    0.873 --     8 O    0.847
    10   1 H    0.999 --     2 C    0.968
    11   1 H    0.999 --     1 C    0.969
    12   6 C    3.995 --     3 C    1.023    15 H    0.983    13 H    0.971
                            14 H    0.971
    13   1 H    0.997 --    12 C    0.971
    14   1 H    0.997 --    12 C    0.971
    15   1 H    0.997 --    12 C    0.983
    16   6 C    3.995 --     6 C    1.026    19 H    0.984    17 H    0.977
                            18 H    0.968
    17   1 H    0.997 --    16 C    0.977
    18   1 H    0.996 --    16 C    0.968
    19   1 H    0.997 --    16 C    0.984
 ---------------------------------------------------------------------------

Topologies differ in total number of bonds
Writing topology from bond orders to xtbtopo.mol

molecular dipole:
                 x           y           z       tot (Debye)
 q only:       -0.446      -0.340       0.014
   full:       -0.586      -0.426       0.021       1.841
molecular quadrupole (traceless):
                xx          xy          yy          xz          yz          zz
 q only:        8.708       0.407      -5.302       0.122       0.013      -3.406
  q+dip:       10.338       0.867      -4.501       0.168       0.016      -5.837
   full:        9.838       0.688      -5.853       0.171       0.017      -3.984

           -------------------------------------------------
          |                Geometry Summary                 |
           -------------------------------------------------

      molecular mass/u    :      122.1646996
   center of mass at/Å    :       -0.0080945       0.0222918      -0.0002907
  moments of inertia/u·Å² :        0.1650045E+03   0.3853534E+03   0.5440667E+03
rotational constants/cm⁻¹ :        0.1021647E+00   0.4374590E-01   0.3098450E-01

 * 17 selected distances

     #   Z          #   Z                                           value/Å
     1   6 C        2   6 C                                       1.3835868
     2   6 C        3   6 C                                       1.3864165
     3   6 C        4   6 C                                       1.3984756 (max)
     4   6 C        5   6 C                                       1.3883232
     1   6 C        6   6 C                                       1.3878200
     5   6 C        6   6 C                                       1.3869413
     5   6 C        7   1 H                                       1.0797847
     4   6 C        8   8 O                                       1.3656653
     8   8 O        9   1 H                                       0.9683053 (min)
     2   6 C       10   1 H                                       1.0805493
     1   6 C       11   1 H                                       1.0799189
    12   6 C       13   1 H                                       1.0901724
    12   6 C       14   1 H                                       1.0901813
    12   6 C       15   1 H                                       1.0862839
    16   6 C       17   1 H                                       1.0875662
    16   6 C       18   1 H                                       1.0895069
    16   6 C       19   1 H                                       1.0866005

 * 4 distinct bonds (by element types)

   Z      Z             #   av. dist./Å        max./Å        min./Å
   1 H    6 C           9     1.0856182     1.0901813     1.0797847
   6 C    6 C           6     1.3885939     1.3984756     1.3835868
   1 H    8 O           1     0.9683053     0.9683053     0.9683053
   6 C    8 O           1     1.3656653     1.3656653     1.3656653

           -------------------------------------------------
          |               Frequency Printout                |
           -------------------------------------------------
 projected vibrational frequencies (cm⁻¹)
eigval :       -0.00    -0.00    -0.00    -0.00     0.00     0.00
eigval :      -20.83   107.73   137.67   212.21   278.82   286.49
eigval :      296.29   333.95   420.93   423.45   481.59   543.40
eigval :      555.38   662.00   722.63   783.25   812.20   876.58
eigval :      909.51   959.02  1002.24  1019.42  1027.63  1030.31
eigval :     1098.50  1134.98  1179.87  1211.00  1267.02  1304.41
eigval :     1338.09  1396.04  1398.98  1424.78  1475.52  1478.50
eigval :     1485.50  1486.75  1505.74  1582.72  1614.44  2988.56
eigval :     2998.58  3003.55  3031.93  3045.44  3053.85  3066.86
eigval :     3081.14  3089.51  3466.83
 reduced masses (amu)
   1: 10.83   2: 11.45   3: 11.43   4: 12.46   5: 10.98   6: 10.07   7:  1.33   8:  6.34
   9:  4.21  10: 10.53  11:  9.15  12: 10.40  13:  6.46  14:  5.87  15: 10.70  16:  9.00
  17: 10.29  18: 11.60  19: 10.43  20: 10.85  21: 11.04  22: 10.78  23:  3.38  24:  3.36
  25:  3.51  26:  8.59  27:  5.89  28:  3.84  29:  4.51  30:  4.65  31:  4.28  32:  7.32
  33:  4.14  34:  6.31  35:  3.64  36: 11.37  37: 11.04  38:  3.30  39:  3.26  40:  9.87
  41:  1.65  42:  1.86  43:  1.58  44:  2.20  45: 10.23  46: 11.38  47: 11.56  48:  1.95
  49:  1.54  50:  1.84  51:  1.70  52:  1.60  53:  1.64  54:  1.77  55:  1.87  56:  1.83
  57:  1.86
 IR intensities (km·mol⁻¹)
   1:  0.19   2:  0.07   3:  0.07   4:  0.01   5:  0.11   6:  0.39   7:  0.44   8:  2.06
   9: 10.15  10:  0.56  11:  3.74  12:  9.81  13: 87.92  14: 77.55  15:  2.72  16:  4.42
  17:  6.27  18:  0.29  19:  4.60  20:  3.95  21:  2.88  22: 25.43  23: 18.68  24:  2.63
  25:  0.35  26: 32.46  27: 48.60  28:  6.38  29:  0.99  30: 17.10  31: 72.82  32:308.10
  33: 25.33  34: 67.99  35: 23.37  36:146.51  37:  5.34  38:  3.55  39:  3.38  40: 46.30
  41:  7.68  42:  3.10  43:  4.81  44:  4.09  45:138.85  46: 64.59  47: 33.45  48: 40.62
  49: 60.02  50: 39.99  51: 49.02  52: 46.34  53: 29.89  54: 57.62  55:184.79  56: 41.43
  57:160.73
 Raman intensities (amu)
   1:  0.00   2:  0.00   3:  0.00   4:  0.00   5:  0.00   6:  0.00   7:  0.00   8:  0.00
   9:  0.00  10:  0.00  11:  0.00  12:  0.00  13:  0.00  14:  0.00  15:  0.00  16:  0.00
  17:  0.00  18:  0.00  19:  0.00  20:  0.00  21:  0.00  22:  0.00  23:  0.00  24:  0.00
  25:  0.00  26:  0.00  27:  0.00  28:  0.00  29:  0.00  30:  0.00  31:  0.00  32:  0.00
  33:  0.00  34:  0.00  35:  0.00  36:  0.00  37:  0.00  38:  0.00  39:  0.00  40:  0.00
  41:  0.00  42:  0.00  43:  0.00  44:  0.00  45:  0.00  46:  0.00  47:  0.00  48:  0.00
  49:  0.00  50:  0.00  51:  0.00  52:  0.00  53:  0.00  54:  0.00  55:  0.00  56:  0.00
  57:  0.00
 output can be read by thermo (or use thermo option).
 writing <g98.out> molden fake output.
 recommended (thermochemical) frequency scaling factor: 1.0
           -------------------------------------------------
          |             Thermodynamic Functions             |
           -------------------------------------------------

Molecule has no symmetry elements
It seems to be the C1 point group
c1  symmetry found (for desy threshold:  0.10E+00) used in thermo

          ...................................................
          :                      SETUP                      :
          :.................................................:
          :  # frequencies                          50      :
          :  # imaginary freq.                       1      :
          :  linear?                             false      :
          :  only rotor calc.                    false      :
          :  symmetry                               c1      :
          :  rotational number                       1      :
          :  scaling factor                  1.0000000      :
          :  rotor cutoff                   50.0000000 cm⁻¹ :
          :  imag. cutoff                  -20.0000000 cm⁻¹ :
          :.................................................:

    mode    ω/cm⁻¹     T·S(HO)/kcal·mol⁻¹    T·S(FR)/kcal·mol⁻¹   T·S(vib)
   ------------------------------------------------------------------------
       1    107.73    -0.98668 ( 95.57%)    -0.82902 (  4.43%)    -0.97969
       2    137.67    -0.84557 ( 98.29%)    -0.75642 (  1.71%)    -0.84405
       3    212.21    -0.60362 ( 99.69%)    -0.62825 (  0.31%)    -0.60369
       4    278.82    -0.45942 ( 99.90%)    -0.54740 (  0.10%)    -0.45951
       5    286.49    -0.44561 ( 99.91%)    -0.53935 (  0.09%)    -0.44570
       6    296.29    -0.42868 ( 99.92%)    -0.52940 (  0.08%)    -0.42876
   ------------------------------------------------------------------------

   temp. (K)  partition function   enthalpy   heat capacity  entropy
                                   cal/mol     cal/K/mol   cal/K/mol   J/K/mol
 298.15  VIB   49.3                 3552.576     26.868     19.635
         ROT  0.449E+06              888.752      2.981     28.846
         INT  0.221E+08             4441.329     29.849     48.481
         TR   0.131E+28             1481.254      4.968     40.296
         TOT                        5922.5827    34.8173    88.7770   371.4431

       T/K    H(0)-H(T)+PV         H(T)/Eh          T*S/Eh         G(T)/Eh
   ------------------------------------------------------------------------
    298.15    0.943824E-02    0.164563E+00    0.421808E-01    0.122382E+00
   ------------------------------------------------------------------------

         :::::::::::::::::::::::::::::::::::::::::::::::::::::
         ::                  THERMODYNAMIC                  ::
         :::::::::::::::::::::::::::::::::::::::::::::::::::::
         :: total free energy         -26.177825194210 Eh   ::
         ::.................................................::
         :: total energy              -26.300207121033 Eh   ::
         :: zero point energy           0.155124520918 Eh   ::
         :: G(RRHO) w/o ZPVE           -0.032742594095 Eh   ::
         :: G(RRHO) contrib.            0.122381926823 Eh   ::
         :::::::::::::::::::::::::::::::::::::::::::::::::::::
imag cut-off (cm-1) :    5.00
 found            1  significant imaginary frequency
 writing imag mode distorted coords to xtbhess.xyz
 for further optimization.

optimized geometry written to: xtbopt.xyz


           -------------------------------------------------
          | TOTAL ENERGY              -26.300207121033 Eh   |
          | TOTAL ENTHALPY            -26.135644363758 Eh   |
          | TOTAL FREE ENERGY         -26.177825194210 Eh   |
          | GRADIENT NORM               0.000677670526 Eh/α |
          | HOMO-LUMO GAP               4.309881324076 eV   |
           -------------------------------------------------

------------------------------------------------------------------------
 * finished run on 2021/11/15 at 09:36:15.089     
------------------------------------------------------------------------
 total:
 * wall-time:     0 d,  0 h,  0 min,  1.013 sec
 *  cpu-time:     0 d,  0 h,  0 min,  0.969 sec
 * ratio c/w:     0.957 speedup
 SCF:
 * wall-time:     0 d,  0 h,  0 min,  0.010 sec
 *  cpu-time:     0 d,  0 h,  0 min,  0.000 sec
 * ratio c/w:     0.000 speedup
 ANC optimizer:
 * wall-time:     0 d,  0 h,  0 min,  0.053 sec
 *  cpu-time:     0 d,  0 h,  0 min,  0.062 sec
 * ratio c/w:     1.188 speedup
 analytical hessian:
 * wall-time:     0 d,  0 h,  0 min,  0.906 sec
 *  cpu-time:     0 d,  0 h,  0 min,  0.891 sec
 * ratio c/w:     0.983 speedup

