 Entering Gaussian System
 *********************************************
 Gaussian 98:
 frequency output generated by the xtb code
 *********************************************
                         Standard orientation:
 --------------------------------------------------------------------
  Center     Atomic     Atomic              Coordinates (Angstroms)
  Number     Number      Type              X           Y           Z
 --------------------------------------------------------------------
    1          6             0        1.124269   -1.310788   -0.004980
    2          6             0       -0.238513   -1.549787   -0.000791
    3          6             0       -1.159707   -0.513666    0.001328
    4          6             0       -0.669291    0.796000   -0.000587
    5          6             0        0.698416    1.034330   -0.004577
    6          6             0        1.610164   -0.010809   -0.007175
    7          1             0        1.034688    2.060416   -0.006496
    8          8             0       -1.492280    1.885831    0.000013
    9          1             0       -2.418899    1.604775    0.000272
   10          1             0       -0.597967   -2.568796   -0.000430
   11          1             0        1.813388   -2.142252   -0.007454
   12          6             0       -2.638018   -0.787120    0.004353
   13          1             0       -3.111731   -0.364569    0.890650
   14          1             0       -3.114935   -0.368732   -0.882211
   15          1             0       -2.815451   -1.858811    0.007112
   16          6             0        3.081620    0.273495    0.005394
   17          1             0        3.323066    1.070598   -0.693986
   18          1             0        3.389529    0.596037    0.999468
   19          1             0        3.649196   -0.614704   -0.258538
 --------------------------------------------------------------------
     1 basis functions        1 primitive gaussians
     1 alpha electrons        1 beta electrons
 
 Harmonic frequencies (cm**-1), IR intensities (km*mol⁻¹),
 Raman scattering activities (A**4/amu), Raman depolarization ratios,
 reduced masses (AMU), force constants (mDyne/A) and normal coordinates:
                      1                      2                      3
                        a                      a                      a 
 Frequencies --   -20.8295               107.7328               137.6653
 Red. masses --     1.3295                 6.3443                 4.2124
 Frc consts  --     0.0000                 0.0000                 0.0000
 IR Inten    --     0.4367                 2.0560                10.1467
 Raman Activ --     0.0000                 0.0000                 0.0000
 Depolar     --     0.0000                 0.0000                 0.0000
 Atom AN      X      Y      Z        X      Y      Z        X      Y      Z
   1   6     0.00   0.01   0.00    -0.00  -0.00  -0.32     0.00  -0.00  -0.12
   2   6     0.01   0.01   0.03    -0.00   0.00  -0.28     0.00  -0.00  -0.13
   3   6     0.00   0.00   0.02    -0.00   0.00  -0.03     0.00  -0.00  -0.04
   4   6    -0.01   0.00  -0.04    -0.00   0.00  -0.07     0.00  -0.00  -0.13
   5   6    -0.00   0.01  -0.05     0.00  -0.00   0.02     0.00   0.00  -0.18
   6   6    -0.00   0.02  -0.03     0.00  -0.00  -0.02     0.00  -0.00  -0.05
   7   1    -0.01   0.01  -0.02     0.00  -0.00   0.05     0.00   0.00  -0.06
   8   8    -0.01   0.00  -0.09     0.01   0.01  -0.13    -0.00  -0.00  -0.14
   9   1    -0.00   0.00  -0.04     0.00   0.01  -0.19    -0.00  -0.00   0.13
  10   1     0.00   0.00   0.02    -0.00   0.00  -0.11     0.00  -0.00  -0.03
  11   1     0.00   0.01   0.00    -0.00  -0.00  -0.14     0.00  -0.00  -0.03
  12   6     0.00  -0.01   0.08     0.00  -0.01   0.41     0.00   0.01   0.31
  13   1     0.00   0.04   0.00     0.03   0.28  -0.00     0.15  -0.36   0.34
  14   1    -0.00  -0.05   0.00    -0.03  -0.29   0.00    -0.14   0.37   0.34
  15   1     0.00  -0.00   0.08     0.00  -0.00   0.47    -0.00   0.00  -0.32
  16   6     0.01  -0.03   0.05    -0.00   0.01   0.32    -0.00   0.00   0.29
  17   1    -0.05   0.37   0.44     0.05  -0.04   0.06     0.05   0.00   0.11
  18   1     0.09  -0.56   0.17    -0.09   0.07   0.10    -0.08  -0.00   0.11
  19   1    -0.03   0.13  -0.51     0.02  -0.01   0.19     0.02   0.00   0.13
                      4                      5                      6
                        a                      a                      a 
 Frequencies --   212.2135               278.8170               286.4936
 Red. masses --    10.5260                 9.1501                10.3995
 Frc consts  --     0.0000                 0.0000                 0.0000
 IR Inten    --     0.5590                 3.7358                 9.8090
 Raman Activ --     0.0000                 0.0000                 0.0000
 Depolar     --     0.0000                 0.0000                 0.0000
 Atom AN      X      Y      Z        X      Y      Z        X      Y      Z
   1   6    -0.00   0.00  -0.16    -0.05   0.10   0.05     0.03   0.18  -0.06
   2   6    -0.00   0.00  -0.04    -0.03   0.16  -0.02     0.07   0.07   0.02
   3   6    -0.00   0.00   0.09    -0.08   0.12  -0.06     0.10   0.06   0.06
   4   6    -0.00   0.00   0.17    -0.08   0.14  -0.03     0.01   0.09   0.02
   5   6    -0.00  -0.00   0.59    -0.03   0.08  -0.01     0.02   0.23   0.01
   6   6     0.00   0.00   0.22    -0.02   0.08   0.02     0.01   0.18  -0.02
   7   1    -0.00  -0.00   0.23    -0.01   0.02  -0.00     0.00   0.07   0.00
   8   8     0.00   0.01  -0.50     0.13   0.36   0.07    -0.49  -0.26  -0.06
   9   1     0.00   0.00  -0.20     0.01   0.15  -0.13    -0.08  -0.20   0.13
  10   1    -0.00   0.00  -0.06    -0.01   0.05  -0.00     0.03   0.02   0.00
  11   1    -0.00  -0.00  -0.16    -0.02   0.02   0.03     0.02   0.07  -0.03
  12   6    -0.00  -0.01   0.08     0.05  -0.59   0.01     0.10   0.11  -0.01
  13   1     0.03  -0.11   0.09    -0.04  -0.27   0.02     0.01   0.05  -0.02
  14   1    -0.03   0.10   0.09    -0.08  -0.24   0.03     0.06   0.02  -0.03
  15   1     0.00  -0.00  -0.10     0.20  -0.20  -0.01     0.02   0.03   0.01
  16   6     0.01   0.00  -0.23     0.05  -0.28  -0.02     0.14  -0.47   0.02
  17   1    -0.07  -0.00  -0.10     0.08  -0.12  -0.02     0.19  -0.20  -0.01
  18   1     0.11   0.00  -0.10     0.05  -0.09  -0.01     0.08  -0.17   0.00
  19   1    -0.03  -0.00  -0.13    -0.07  -0.14   0.01    -0.10  -0.24   0.04
                      7                      8                      9
                        a                      a                      a 
 Frequencies --   296.2860               333.9516               420.9313
 Red. masses --     6.4594                 5.8673                10.6991
 Frc consts  --     0.0000                 0.0000                 0.0000
 IR Inten    --    87.9158                77.5492                 2.7199
 Raman Activ --     0.0000                 0.0000                 0.0000
 Depolar     --     0.0000                 0.0000                 0.0000
 Atom AN      X      Y      Z        X      Y      Z        X      Y      Z
   1   6     0.02   0.02   0.29    -0.00   0.00   0.30    -0.00   0.32   0.02
   2   6     0.02  -0.02  -0.15    -0.01   0.00  -0.29     0.01   0.04  -0.09
   3   6     0.03  -0.01  -0.36    -0.01   0.00  -0.35    -0.30  -0.21   0.11
   4   6     0.01  -0.01  -0.15    -0.00  -0.00  -0.11    -0.04  -0.30   0.07
   5   6     0.01   0.03  -0.02    -0.00  -0.01   0.07    -0.06   0.00  -0.08
   6   6     0.01   0.02   0.19     0.00  -0.00   0.29     0.20   0.26   0.06
   7   1     0.00   0.01   0.01    -0.00  -0.00   0.02    -0.14   0.04  -0.07
   8   8    -0.11  -0.12   0.29     0.02   0.02  -0.11     0.29  -0.13  -0.02
   9   1    -0.02  -0.06  -0.64     0.00   0.01   0.64     0.05   0.06  -0.02
  10   1     0.01  -0.01  -0.05    -0.00   0.00  -0.14     0.10  -0.02  -0.08
  11   1     0.01   0.01   0.17    -0.00  -0.00   0.16    -0.00   0.09  -0.00
  12   6     0.01   0.13   0.12    -0.01  -0.02   0.13    -0.42   0.01  -0.00
  13   1     0.15   0.02   0.12     0.08   0.08   0.04    -0.12   0.03  -0.01
  14   1    -0.12   0.08   0.12    -0.09  -0.09   0.04    -0.07   0.04  -0.01
  15   1    -0.03   0.04   0.02     0.00  -0.01   0.18    -0.18   0.01  -0.02
  16   6     0.03  -0.04  -0.12     0.01   0.01  -0.12     0.31  -0.03   0.00
  17   1    -0.04  -0.02  -0.06    -0.08  -0.00  -0.07     0.14  -0.04  -0.01
  18   1     0.10  -0.01  -0.06     0.12   0.01  -0.07     0.13  -0.03  -0.01
  19   1    -0.03  -0.02  -0.08    -0.03   0.00  -0.10     0.01  -0.06   0.00
                     10                     11                     12
                        a                      a                      a 
 Frequencies --   423.4497               481.5900               543.4034
 Red. masses --     8.9957                10.2866                11.5973
 Frc consts  --     0.0000                 0.0000                 0.0000
 IR Inten    --     4.4192                 6.2670                 0.2935
 Raman Activ --     0.0000                 0.0000                 0.0000
 Depolar     --     0.0000                 0.0000                 0.0000
 Atom AN      X      Y      Z        X      Y      Z        X      Y      Z
   1   6     0.00   0.07  -0.16     0.07   0.09   0.01     0.36  -0.16  -0.04
   2   6     0.01   0.00   0.42     0.18  -0.29  -0.01     0.29   0.07   0.02
   3   6    -0.06  -0.05  -0.43     0.19  -0.24   0.00    -0.01  -0.09   0.02
   4   6    -0.01  -0.07  -0.33    -0.09  -0.13   0.01    -0.38   0.06  -0.05
   5   6    -0.02   0.00   0.32    -0.22   0.20   0.00    -0.26  -0.33  -0.01
   6   6     0.04   0.06  -0.26    -0.32   0.21  -0.00     0.12  -0.09   0.05
   7   1    -0.03   0.01   0.31    -0.11   0.07  -0.00    -0.06  -0.09  -0.00
   8   8     0.07  -0.03   0.10     0.31   0.14  -0.01    -0.26   0.39   0.02
   9   1     0.01   0.02   0.11     0.03   0.18   0.00    -0.09   0.18   0.01
  10   1     0.02  -0.01   0.35     0.08  -0.09  -0.01     0.08   0.02   0.01
  11   1     0.00   0.02  -0.01     0.12   0.11   0.01     0.09  -0.06  -0.02
  12   6    -0.09   0.01   0.01     0.19   0.10   0.00    -0.05   0.09  -0.00
  13   1     0.08   0.04   0.04     0.11   0.09  -0.00     0.03   0.08  -0.00
  14   1    -0.12  -0.02   0.04     0.10   0.09   0.00     0.04   0.08  -0.00
  15   1    -0.04   0.00   0.06    -0.06   0.05   0.00    -0.12   0.05  -0.00
  16   6     0.06  -0.01   0.01    -0.36  -0.16  -0.01     0.19  -0.06   0.00
  17   1     0.09  -0.00   0.03    -0.02  -0.08  -0.01     0.07  -0.03  -0.01
  18   1    -0.05  -0.02   0.03    -0.07  -0.07  -0.00     0.08  -0.02  -0.01
  19   1     0.02  -0.01   0.04    -0.19  -0.11   0.01     0.02  -0.04  -0.00
                     13                     14                     15
                        a                      a                      a 
 Frequencies --   555.3791               662.0021               722.6293
 Red. masses --    10.4296                10.8501                11.0366
 Frc consts  --     0.0000                 0.0000                 0.0000
 IR Inten    --     4.5958                 3.9475                 2.8766
 Raman Activ --     0.0000                 0.0000                 0.0000
 Depolar     --     0.0000                 0.0000                 0.0000
 Atom AN      X      Y      Z        X      Y      Z        X      Y      Z
   1   6     0.04  -0.01   0.34    -0.01   0.00  -0.27     0.37  -0.07  -0.00
   2   6     0.03   0.02  -0.16    -0.00  -0.01   0.31     0.31   0.49   0.01
   3   6    -0.01  -0.00  -0.17     0.00  -0.00  -0.46    -0.10   0.15  -0.00
   4   6    -0.03   0.00   0.51     0.00   0.00   0.59     0.09  -0.01  -0.00
   5   6    -0.02  -0.03   0.15    -0.00   0.00  -0.28     0.03  -0.07  -0.00
   6   6     0.02  -0.01  -0.60    -0.00   0.00   0.27    -0.10  -0.05   0.02
   7   1    -0.00  -0.01   0.04    -0.00   0.00  -0.19     0.04  -0.03  -0.01
   8   8    -0.03   0.03  -0.17    -0.00   0.00  -0.08     0.16  -0.25   0.00
   9   1    -0.01   0.01  -0.04    -0.00   0.00  -0.00     0.05  -0.11   0.00
  10   1     0.01   0.00  -0.07    -0.00  -0.00   0.06     0.08   0.14  -0.01
  11   1     0.01  -0.01   0.23    -0.00   0.00  -0.12     0.08  -0.03  -0.01
  12   6    -0.02   0.01   0.00     0.01   0.00  -0.06    -0.25   0.01  -0.00
  13   1     0.06   0.02   0.03     0.13   0.03   0.04    -0.09  -0.03   0.00
  14   1    -0.07  -0.01   0.03    -0.13  -0.03   0.04    -0.10  -0.03  -0.00
  15   1    -0.01   0.00   0.03     0.00   0.00   0.06    -0.01  -0.01   0.00
  16   6     0.02  -0.01  -0.02     0.00   0.00   0.04    -0.42  -0.11  -0.01
  17   1     0.14   0.02   0.07    -0.05  -0.01  -0.02    -0.11  -0.03  -0.00
  18   1    -0.19  -0.03   0.07     0.07   0.01  -0.02    -0.12  -0.04  -0.00
  19   1     0.06   0.00   0.09    -0.02  -0.00  -0.02    -0.14  -0.04   0.00
                     16                     17                     18
                        a                      a                      a 
 Frequencies --   783.2450               812.1951               876.5783
 Red. masses --    10.7839                 3.3845                 3.3589
 Frc consts  --     0.0000                 0.0000                 0.0000
 IR Inten    --    25.4295                18.6773                 2.6348
 Raman Activ --     0.0000                 0.0000                 0.0000
 Depolar     --     0.0000                 0.0000                 0.0000
 Atom AN      X      Y      Z        X      Y      Z        X      Y      Z
   1   6     0.18  -0.17  -0.00    -0.01   0.00   0.28    -0.00  -0.00  -0.15
   2   6     0.11  -0.35   0.00    -0.00  -0.01   0.25    -0.00  -0.00  -0.13
   3   6     0.02  -0.14   0.00     0.00  -0.00  -0.08     0.00  -0.00  -0.02
   4   6     0.19   0.17  -0.00    -0.00  -0.00  -0.14     0.00   0.00  -0.07
   5   6     0.30   0.37  -0.00     0.00  -0.00   0.18     0.00   0.00   0.41
   6   6    -0.03  -0.03   0.01     0.01   0.00  -0.09     0.00  -0.00   0.01
   7   1     0.19   0.07  -0.00    -0.00   0.00  -0.34    -0.01   0.00  -0.80
   8   8    -0.18   0.25   0.00    -0.01   0.00   0.04    -0.00   0.00   0.03
   9   1    -0.01  -0.03   0.00    -0.00   0.00   0.01     0.00  -0.00   0.00
  10   1     0.06  -0.11  -0.00    -0.00  -0.00  -0.48     0.00  -0.00   0.32
  11   1     0.13   0.02  -0.00    -0.01  -0.00  -0.63     0.00   0.00   0.21
  12   6    -0.49  -0.11   0.00     0.00   0.00  -0.04    -0.00  -0.00  -0.00
  13   1    -0.13  -0.02  -0.00     0.08   0.02   0.03     0.01   0.00   0.00
  14   1    -0.13  -0.02   0.00    -0.08  -0.01   0.03    -0.01  -0.00   0.00
  15   1    -0.19  -0.02   0.00     0.00   0.00   0.04    -0.00  -0.00   0.00
  16   6    -0.04  -0.01  -0.00     0.01   0.00  -0.05    -0.00  -0.00  -0.01
  17   1    -0.04   0.01   0.00     0.08   0.02   0.04     0.02   0.01   0.01
  18   1    -0.02   0.01  -0.00    -0.11  -0.02   0.03    -0.03  -0.00   0.01
  19   1     0.03   0.02  -0.00     0.03   0.00   0.05     0.01   0.00   0.01
                     19                     20                     21
                        a                      a                      a 
 Frequencies --   909.5103               959.0248              1002.2430
 Red. masses --     3.5094                 8.5908                 5.8944
 Frc consts  --     0.0000                 0.0000                 0.0000
 IR Inten    --     0.3463                32.4612                48.6041
 Raman Activ --     0.0000                 0.0000                 0.0000
 Depolar     --     0.0000                 0.0000                 0.0000
 Atom AN      X      Y      Z        X      Y      Z        X      Y      Z
   1   6     0.00   0.00   0.31    -0.16   0.48  -0.01    -0.03   0.22  -0.00
   2   6     0.00   0.00  -0.34     0.03   0.09   0.00     0.04  -0.29  -0.00
   3   6     0.00  -0.00  -0.02    -0.02  -0.18  -0.00     0.05   0.06   0.00
   4   6     0.00  -0.00   0.09     0.12  -0.03  -0.00     0.03   0.02   0.00
   5   6     0.00   0.00  -0.09     0.20  -0.25  -0.00     0.02  -0.36  -0.00
   6   6     0.00  -0.00   0.02     0.22  -0.08   0.01     0.11   0.06   0.01
   7   1     0.00   0.00   0.05     0.14  -0.10   0.00     0.07  -0.12   0.00
   8   8    -0.00   0.00  -0.01    -0.17   0.20   0.00    -0.05   0.11   0.00
   9   1    -0.00   0.00   0.00    -0.01  -0.04  -0.00     0.04  -0.14   0.00
  10   1     0.00  -0.00   0.66     0.21  -0.04  -0.00     0.17  -0.14   0.01
  11   1    -0.01  -0.00  -0.58    -0.06   0.12   0.01     0.08   0.13   0.00
  12   6     0.00  -0.00   0.01     0.07  -0.15   0.00    -0.09   0.31  -0.00
  13   1    -0.02   0.00  -0.01     0.13   0.11  -0.01    -0.23  -0.20   0.02
  14   1     0.02   0.00  -0.01     0.14   0.11   0.01    -0.24  -0.20  -0.02
  15   1    -0.00   0.00  -0.01    -0.24   0.01   0.00     0.46  -0.01   0.00
  16   6    -0.00  -0.00   0.01    -0.25  -0.19  -0.01    -0.15   0.08  -0.01
  17   1    -0.01  -0.00  -0.00    -0.27   0.03   0.01     0.09  -0.02  -0.01
  18   1     0.01   0.00  -0.00    -0.18   0.04   0.00    -0.01  -0.05   0.01
  19   1     0.00   0.00   0.00     0.12   0.07  -0.00    -0.19  -0.08   0.01
                     22                     23                     24
                        a                      a                      a 
 Frequencies --  1019.4230              1027.6251              1030.3118
 Red. masses --     3.8403                 4.5066                 4.6460
 Frc consts  --     0.0000                 0.0000                 0.0000
 IR Inten    --     6.3756                 0.9919                17.1017
 Raman Activ --     0.0000                 0.0000                 0.0000
 Depolar     --     0.0000                 0.0000                 0.0000
 Atom AN      X      Y      Z        X      Y      Z        X      Y      Z
   1   6     0.05   0.03  -0.00     0.00  -0.01  -0.00    -0.00   0.01   0.06
   2   6     0.06  -0.02   0.00    -0.00  -0.00   0.03     0.01  -0.01   0.05
   3   6    -0.01   0.02   0.01    -0.00   0.00  -0.31     0.00   0.00  -0.17
   4   6    -0.09  -0.05  -0.00    -0.01  -0.00   0.03     0.00   0.01   0.03
   5   6    -0.11   0.16   0.00    -0.01   0.01  -0.00    -0.00  -0.01   0.06
   6   6    -0.04  -0.04  -0.00    -0.00   0.00   0.17     0.00  -0.00  -0.32
   7   1    -0.18   0.10   0.00    -0.01   0.00  -0.01     0.00  -0.00  -0.08
   8   8     0.03  -0.05   0.00     0.00  -0.00  -0.00     0.00   0.01  -0.00
   9   1    -0.02   0.09   0.00     0.00  -0.00  -0.02     0.00  -0.01  -0.01
  10   1     0.05  -0.02  -0.00    -0.00   0.00  -0.04     0.01  -0.00  -0.08
  11   1     0.09   0.08   0.00     0.00   0.00  -0.01     0.00   0.01  -0.07
  12   6    -0.01   0.19  -0.01     0.00   0.01   0.38    -0.01   0.00   0.20
  13   1    -0.10  -0.10   0.01    -0.47  -0.07  -0.13    -0.25  -0.04  -0.07
  14   1    -0.13  -0.11  -0.01     0.47   0.06  -0.14     0.24   0.03  -0.07
  15   1     0.28  -0.00   0.00     0.01  -0.00  -0.20     0.01  -0.00  -0.10
  16   6     0.14  -0.37   0.00     0.02  -0.01  -0.21    -0.02  -0.01   0.38
  17   1    -0.41   0.08   0.03     0.19   0.06   0.09    -0.36  -0.11  -0.16
  18   1    -0.16   0.15  -0.02    -0.28  -0.06   0.06     0.51   0.12  -0.11
  19   1     0.52   0.23  -0.02     0.09   0.01   0.11    -0.13   0.00  -0.20
                     25                     26                     27
                        a                      a                      a 
 Frequencies --  1098.4992              1134.9768              1179.8715
 Red. masses --     4.2810                 7.3186                 4.1389
 Frc consts  --     0.0000                 0.0000                 0.0000
 IR Inten    --    72.8243               308.0990                25.3348
 Raman Activ --     0.0000                 0.0000                 0.0000
 Depolar     --     0.0000                 0.0000                 0.0000
 Atom AN      X      Y      Z        X      Y      Z        X      Y      Z
   1   6    -0.04  -0.04  -0.00    -0.05   0.16   0.00     0.12  -0.01   0.00
   2   6     0.06   0.09  -0.00    -0.00  -0.11   0.00    -0.12  -0.11  -0.00
   3   6    -0.14  -0.08  -0.00     0.22   0.19  -0.00     0.05   0.17  -0.00
   4   6    -0.04  -0.24   0.00    -0.21   0.32  -0.00     0.13  -0.13   0.00
   5   6     0.28   0.14   0.00    -0.09  -0.16   0.00     0.17  -0.15  -0.00
   6   6     0.07  -0.02  -0.00    -0.15   0.02   0.00     0.26   0.09   0.00
   7   1     0.23  -0.01  -0.00     0.45  -0.20  -0.01    -0.38   0.10   0.00
   8   8    -0.17  -0.13  -0.00     0.15  -0.35  -0.00    -0.12  -0.00   0.00
   9   1    -0.26   0.70   0.00    -0.07   0.28   0.00    -0.10   0.23   0.00
  10   1     0.13  -0.02   0.00    -0.09   0.00   0.00    -0.53   0.14   0.00
  11   1    -0.14  -0.12   0.00     0.23   0.24  -0.00     0.35   0.25  -0.00
  12   6     0.07   0.12   0.00    -0.14  -0.11   0.00    -0.03  -0.05   0.00
  13   1    -0.03  -0.03  -0.00    -0.02   0.03  -0.01    -0.00   0.01  -0.01
  14   1    -0.02  -0.03  -0.00    -0.01   0.03   0.01    -0.00   0.01   0.01
  15   1     0.20  -0.00  -0.01    -0.16  -0.00  -0.00    -0.06  -0.00  -0.00
  16   6    -0.09   0.05   0.00     0.11  -0.03   0.00    -0.17  -0.02  -0.00
  17   1     0.03  -0.01  -0.01    -0.00   0.00  -0.00    -0.05  -0.01  -0.00
  18   1     0.01  -0.02   0.00     0.01   0.02  -0.00    -0.05  -0.01   0.00
  19   1    -0.09  -0.03   0.00     0.10   0.04  -0.01    -0.08  -0.03   0.00
                     28                     29                     30
                        a                      a                      a 
 Frequencies --  1211.0002              1267.0170              1304.4075
 Red. masses --     6.3066                 3.6429                11.3663
 Frc consts  --     0.0000                 0.0000                 0.0000
 IR Inten    --    67.9918                23.3746               146.5070
 Raman Activ --     0.0000                 0.0000                 0.0000
 Depolar     --     0.0000                 0.0000                 0.0000
 Atom AN      X      Y      Z        X      Y      Z        X      Y      Z
   1   6     0.12  -0.05   0.00    -0.10  -0.12   0.00    -0.37  -0.01   0.00
   2   6    -0.14   0.12   0.00    -0.08   0.02   0.00     0.35   0.18  -0.00
   3   6    -0.44  -0.17   0.00    -0.15   0.23   0.00     0.35   0.06  -0.00
   4   6     0.03  -0.24   0.00     0.11   0.14   0.00     0.17  -0.38   0.00
   5   6     0.04   0.06   0.00     0.08  -0.05  -0.00     0.11  -0.14   0.00
   6   6    -0.22  -0.03  -0.00    -0.12  -0.22  -0.00    -0.45  -0.02  -0.00
   7   1     0.38  -0.11  -0.00    -0.37   0.11   0.00    -0.06  -0.02  -0.00
   8   8    -0.04   0.16   0.00    -0.02  -0.09  -0.00    -0.13   0.17   0.00
   9   1     0.05  -0.17  -0.00    -0.05   0.12   0.00    -0.02   0.01   0.00
  10   1    -0.12   0.06   0.00     0.60  -0.21  -0.00    -0.07   0.12   0.00
  11   1     0.43   0.32  -0.01     0.31   0.25  -0.00     0.02   0.11  -0.00
  12   6     0.22   0.07  -0.00     0.03  -0.08  -0.00    -0.16   0.00   0.00
  13   1     0.07   0.01   0.01     0.07   0.08  -0.01    -0.06  -0.03  -0.00
  14   1     0.07   0.01  -0.01     0.07   0.08   0.01    -0.06  -0.03   0.00
  15   1     0.13   0.00   0.00    -0.03  -0.01   0.00    -0.04  -0.00  -0.00
  16   6     0.09   0.02   0.01     0.04   0.08   0.00     0.16   0.05   0.01
  17   1     0.06  -0.01  -0.01     0.10  -0.02  -0.01     0.10  -0.01  -0.00
  18   1     0.05  -0.00  -0.01     0.06  -0.03   0.00     0.08   0.01  -0.01
  19   1     0.05   0.03  -0.01    -0.02  -0.01   0.01     0.09   0.04  -0.00
                     31                     32                     33
                        a                      a                      a 
 Frequencies --  1338.0927              1396.0363              1398.9845
 Red. masses --    11.0382                 3.3025                 3.2562
 Frc consts  --     0.0000                 0.0000                 0.0000
 IR Inten    --     5.3366                 3.5524                 3.3791
 Raman Activ --     0.0000                 0.0000                 0.0000
 Depolar     --     0.0000                 0.0000                 0.0000
 Atom AN      X      Y      Z        X      Y      Z        X      Y      Z
   1   6     0.18   0.27   0.00     0.02  -0.01  -0.00     0.04   0.02   0.00
   2   6    -0.25   0.20   0.00    -0.00  -0.04  -0.00    -0.03  -0.03   0.00
   3   6     0.22  -0.41  -0.00     0.03   0.06  -0.00    -0.01   0.01   0.00
   4   6     0.37   0.17  -0.00     0.04  -0.01  -0.00     0.02   0.02   0.00
   5   6    -0.31   0.07  -0.00    -0.02  -0.04   0.00    -0.01  -0.03   0.00
   6   6    -0.08  -0.44  -0.00    -0.03   0.08   0.00     0.04   0.04  -0.00
   7   1    -0.08   0.02  -0.00     0.02  -0.02   0.00    -0.01  -0.01   0.00
   8   8    -0.04  -0.01  -0.00    -0.00   0.00   0.00    -0.00  -0.01  -0.00
   9   1    -0.06   0.17   0.00    -0.00  -0.00  -0.00    -0.00   0.01  -0.00
  10   1    -0.07   0.06   0.00    -0.02  -0.00  -0.00    -0.02  -0.01  -0.00
  11   1     0.01   0.05   0.00    -0.03  -0.03  -0.00    -0.05  -0.04   0.00
  12   6    -0.10   0.06   0.00    -0.43  -0.05  -0.00    -0.06  -0.01  -0.00
  13   1    -0.03  -0.07   0.03     0.47   0.10   0.22     0.08   0.02   0.03
  14   1    -0.03  -0.07  -0.03     0.47   0.10  -0.22     0.07   0.02  -0.03
  15   1     0.08  -0.01  -0.00     0.44  -0.09   0.00     0.07  -0.01   0.00
  16   6     0.05   0.09   0.00     0.08  -0.00   0.01    -0.42  -0.12  -0.04
  17   1     0.08  -0.03  -0.03    -0.09   0.00  -0.03     0.45   0.04   0.23
  18   1     0.05  -0.07   0.02    -0.09   0.00   0.03     0.48   0.11  -0.20
  19   1    -0.04  -0.02   0.01    -0.06  -0.04  -0.02     0.40   0.24   0.11
                     34                     35                     36
                        a                      a                      a 
 Frequencies --  1424.7770              1475.5183              1478.4985
 Red. masses --     9.8677                 1.6498                 1.8616
 Frc consts  --     0.0000                 0.0000                 0.0000
 IR Inten    --    46.2984                 7.6780                 3.1040
 Raman Activ --     0.0000                 0.0000                 0.0000
 Depolar     --     0.0000                 0.0000                 0.0000
 Atom AN      X      Y      Z        X      Y      Z        X      Y      Z
   1   6     0.31   0.01  -0.00     0.01   0.01  -0.00    -0.05  -0.08   0.00
   2   6    -0.20  -0.14   0.00     0.01  -0.02   0.00    -0.06   0.08   0.00
   3   6    -0.08   0.26   0.00     0.00   0.05   0.00     0.05  -0.06   0.00
   4   6     0.50  -0.15  -0.00     0.02  -0.05   0.00     0.02   0.00   0.00
   5   6    -0.25  -0.19   0.00    -0.04   0.02   0.01    -0.01  -0.00   0.00
   6   6    -0.23   0.31   0.00    -0.01   0.00  -0.03     0.02   0.02  -0.02
   7   1     0.09  -0.12  -0.00     0.03  -0.01  -0.00     0.02  -0.01  -0.00
   8   8    -0.11   0.05   0.00    -0.01   0.01  -0.00    -0.00   0.00  -0.00
   9   1    -0.05   0.13   0.00     0.00  -0.01  -0.00    -0.01   0.02   0.00
  10   1     0.09  -0.09  -0.00    -0.00  -0.00  -0.00     0.06  -0.00  -0.00
  11   1    -0.14  -0.18   0.00    -0.00  -0.00   0.00     0.07   0.05  -0.00
  12   6     0.05  -0.11   0.00    -0.01  -0.05   0.00     0.00   0.09   0.00
  13   1    -0.07   0.12  -0.11    -0.03   0.10  -0.06     0.06  -0.18   0.12
  14   1    -0.07   0.12   0.11    -0.03   0.09   0.06     0.05  -0.20  -0.12
  15   1    -0.02  -0.01  -0.00     0.07  -0.02  -0.00    -0.15   0.03  -0.02
  16   6     0.10  -0.10   0.01     0.01   0.10  -0.19     0.10  -0.15  -0.10
  17   1    -0.04   0.05   0.05    -0.36   0.18   0.06    -0.09   0.42   0.45
  18   1    -0.06   0.12  -0.02     0.30  -0.42   0.03     0.06   0.44  -0.17
  19   1     0.02   0.00  -0.06     0.06  -0.16   0.67    -0.30  -0.25   0.12
                     37                     38                     39
                        a                      a                      a 
 Frequencies --  1485.5042              1486.7482              1505.7441
 Red. masses --     1.5787                 2.1991                10.2285
 Frc consts  --     0.0000                 0.0000                 0.0000
 IR Inten    --     4.8075                 4.0867               138.8473
 Raman Activ --     0.0000                 0.0000                 0.0000
 Depolar     --     0.0000                 0.0000                 0.0000
 Atom AN      X      Y      Z        X      Y      Z        X      Y      Z
   1   6     0.02  -0.00  -0.00    -0.09   0.03   0.00     0.08   0.23  -0.00
   2   6    -0.02  -0.01   0.00     0.09   0.03   0.00     0.30  -0.18  -0.00
   3   6    -0.01   0.02   0.03     0.04  -0.10   0.01    -0.42  -0.14   0.00
   4   6     0.02  -0.01  -0.00    -0.09   0.04  -0.00     0.06   0.37  -0.00
   5   6     0.00  -0.02  -0.00     0.01   0.07  -0.00     0.29  -0.20  -0.00
   6   6    -0.01   0.03   0.00     0.06  -0.15  -0.00    -0.40  -0.05  -0.00
   7   1     0.00  -0.00   0.00    -0.01   0.02   0.00    -0.22   0.04   0.00
   8   8    -0.00   0.00  -0.00     0.02  -0.01  -0.00     0.02  -0.10   0.00
   9   1    -0.00   0.01   0.02     0.02  -0.05   0.00    -0.02   0.05   0.00
  10   1     0.01  -0.01  -0.00    -0.07   0.04  -0.00    -0.23   0.05   0.00
  11   1    -0.01  -0.01   0.00     0.03   0.05  -0.00    -0.17  -0.09   0.00
  12   6     0.01   0.04   0.21    -0.05  -0.18   0.05     0.10   0.04  -0.00
  13   1     0.22   0.32  -0.02    -0.11   0.50  -0.29     0.03  -0.02   0.02
  14   1    -0.15  -0.49  -0.13    -0.19   0.33   0.26     0.03  -0.02  -0.02
  15   1    -0.08   0.01  -0.70     0.38  -0.08  -0.15     0.03   0.01   0.00
  16   6    -0.01   0.01   0.00     0.02  -0.05  -0.01     0.12   0.01  -0.02
  17   1    -0.01  -0.04  -0.05     0.06   0.13   0.17    -0.01   0.06   0.05
  18   1     0.00  -0.06   0.02    -0.02   0.24  -0.07     0.03   0.04  -0.02
  19   1     0.04   0.02   0.01    -0.15  -0.08  -0.07    -0.01  -0.03   0.04
                     40                     41                     42
                        a                      a                      a 
 Frequencies --  1582.7170              1614.4414              2988.5586
 Red. masses --    11.3772                11.5564                 1.9491
 Frc consts  --     0.0000                 0.0000                 0.0000
 IR Inten    --    64.5876                33.4491                40.6165
 Raman Activ --     0.0000                 0.0000                 0.0000
 Depolar     --     0.0000                 0.0000                 0.0000
 Atom AN      X      Y      Z        X      Y      Z        X      Y      Z
   1   6    -0.18  -0.36   0.00     0.37   0.15  -0.00    -0.00   0.00   0.00
   2   6    -0.11   0.25   0.00    -0.47   0.10   0.00     0.00  -0.00  -0.00
   3   6     0.08  -0.48  -0.00     0.29  -0.05  -0.00    -0.00   0.00  -0.01
   4   6     0.13   0.33  -0.00    -0.38  -0.12   0.00    -0.00   0.00   0.00
   5   6     0.08  -0.23   0.00     0.46  -0.11  -0.00    -0.00  -0.00  -0.00
   6   6     0.01   0.53   0.00    -0.30   0.04  -0.00     0.00   0.00  -0.00
   7   1    -0.05  -0.03   0.00    -0.10   0.04   0.00     0.00   0.00  -0.00
   8   8    -0.00  -0.04   0.00     0.02   0.03  -0.00    -0.00  -0.00   0.00
   9   1    -0.02   0.05   0.00     0.02  -0.07  -0.00     0.00  -0.00  -0.00
  10   1     0.07   0.03  -0.00     0.10  -0.05  -0.00    -0.00  -0.00  -0.00
  11   1     0.10   0.03  -0.00    -0.05  -0.08   0.00     0.00  -0.00   0.00
  12   6    -0.01   0.02  -0.00    -0.04  -0.01   0.00    -0.01   0.01  -0.29
  13   1    -0.04   0.03  -0.03    -0.03   0.02  -0.02    -0.29   0.27   0.51
  14   1    -0.04   0.03   0.03    -0.03   0.02   0.02     0.31  -0.29   0.56
  15   1     0.09  -0.01   0.00     0.02  -0.01  -0.00    -0.00  -0.00  -0.04
  16   6    -0.02  -0.03   0.00     0.05  -0.00  -0.00    -0.00  -0.00  -0.00
  17   1    -0.06  -0.03  -0.05    -0.01   0.01   0.01    -0.00  -0.00  -0.00
  18   1    -0.02  -0.06   0.02     0.01   0.01  -0.01     0.00   0.00   0.00
  19   1     0.08   0.04   0.02     0.01  -0.00   0.01    -0.00  -0.00  -0.00
                     43                     44                     45
                        a                      a                      a 
 Frequencies --  2998.5810              3003.5547              3031.9303
 Red. masses --     1.5443                 1.8373                 1.6995
 Frc consts  --     0.0000                 0.0000                 0.0000
 IR Inten    --    60.0209                39.9904                49.0204
 Raman Activ --     0.0000                 0.0000                 0.0000
 Depolar     --     0.0000                 0.0000                 0.0000
 Atom AN      X      Y      Z        X      Y      Z        X      Y      Z
   1   6     0.00  -0.00   0.00     0.00  -0.00  -0.00    -0.00   0.00   0.00
   2   6    -0.00   0.00  -0.00    -0.00  -0.00   0.00    -0.00  -0.00  -0.00
   3   6     0.01  -0.00  -0.00     0.00  -0.00   0.00     0.00   0.00  -0.00
   4   6     0.00  -0.00   0.00    -0.00  -0.00   0.00    -0.00  -0.00  -0.00
   5   6     0.00   0.00  -0.00     0.00   0.00   0.00     0.00   0.01  -0.00
   6   6    -0.00   0.00   0.00    -0.00  -0.00  -0.01    -0.00  -0.01   0.00
   7   1    -0.00  -0.00   0.00    -0.00  -0.01  -0.00    -0.01  -0.03   0.00
   8   8     0.00   0.00   0.00     0.00   0.00   0.00     0.00   0.00   0.00
   9   1    -0.01   0.00  -0.00    -0.00  -0.00  -0.00    -0.00  -0.00  -0.00
  10   1     0.00   0.00  -0.00     0.00   0.00   0.00     0.00   0.01   0.00
  11   1    -0.00   0.00  -0.00    -0.00   0.00  -0.00     0.00  -0.00   0.00
  12   6     0.14  -0.17  -0.01     0.01  -0.01  -0.00     0.00  -0.00  -0.00
  13   1    -0.29   0.26   0.60    -0.02   0.01   0.03    -0.00   0.00   0.01
  14   1    -0.27   0.23  -0.55    -0.01   0.01  -0.03    -0.00   0.00  -0.01
  15   1     0.03   0.09  -0.00     0.00   0.01  -0.00     0.00   0.01  -0.00
  16   6     0.00   0.00   0.01    -0.04  -0.05  -0.27    -0.05  -0.23   0.10
  17   1     0.00   0.00   0.00    -0.05  -0.18   0.11     0.19   0.68  -0.61
  18   1    -0.01  -0.02  -0.05     0.25   0.28   0.85     0.05   0.03   0.21
  19   1     0.00   0.00   0.00    -0.05   0.07  -0.02    -0.08   0.09   0.05
                     46                     47                     48
                        a                      a                      a 
 Frequencies --  3045.4447              3053.8474              3066.8559
 Red. masses --     1.6009                 1.6446                 1.7742
 Frc consts  --     0.0000                 0.0000                 0.0000
 IR Inten    --    46.3427                29.8949                57.6225
 Raman Activ --     0.0000                 0.0000                 0.0000
 Depolar     --     0.0000                 0.0000                 0.0000
 Atom AN      X      Y      Z        X      Y      Z        X      Y      Z
   1   6    -0.01   0.01   0.00     0.00  -0.00  -0.00    -0.09   0.11   0.00
   2   6     0.00   0.00   0.00     0.01   0.03  -0.00    -0.07  -0.21   0.00
   3   6    -0.00   0.00   0.00    -0.00  -0.01   0.00    -0.01  -0.01   0.00
   4   6    -0.00   0.00   0.00     0.00   0.00   0.00     0.00   0.00  -0.00
   5   6     0.00   0.00  -0.00    -0.00  -0.00  -0.00     0.00   0.00   0.00
   6   6     0.01  -0.01  -0.00     0.00  -0.00  -0.00    -0.01   0.00   0.00
   7   1    -0.00  -0.00  -0.00     0.00   0.01  -0.00    -0.01  -0.01  -0.00
   8   8     0.00  -0.00  -0.00     0.00   0.00  -0.00     0.00  -0.00   0.00
   9   1     0.00   0.00  -0.00    -0.00   0.00   0.00     0.00   0.00   0.00
  10   1    -0.00  -0.00  -0.00    -0.03  -0.09   0.00     0.27   0.76  -0.00
  11   1     0.03  -0.03  -0.00    -0.01   0.01   0.00     0.33  -0.40  -0.00
  12   6     0.00   0.01  -0.00    -0.05  -0.23   0.00    -0.00  -0.02   0.00
  13   1     0.00   0.00  -0.00     0.03  -0.06  -0.06     0.00  -0.01  -0.00
  14   1     0.00   0.00   0.00     0.03  -0.06   0.06     0.00  -0.01   0.01
  15   1    -0.00  -0.03   0.00     0.14   0.95  -0.00     0.02   0.09  -0.00
  16   6     0.14  -0.17  -0.05     0.00  -0.00  -0.00    -0.00   0.01  -0.00
  17   1    -0.01  -0.11   0.07    -0.00  -0.01   0.01    -0.00  -0.01   0.01
  18   1    -0.01  -0.06  -0.11    -0.00  -0.00  -0.01    -0.00   0.00   0.00
  19   1    -0.48   0.79   0.23    -0.01   0.02   0.01     0.01  -0.02  -0.01
                     49                     50                     51
                        a                      a                      a 
 Frequencies --  3081.1435              3089.5081              3466.8342
 Red. masses --     1.8684                 1.8270                 1.8613
 Frc consts  --     0.0000                 0.0000                 0.0000
 IR Inten    --   184.7911                41.4265               160.7298
 Raman Activ --     0.0000                 0.0000                 0.0000
 Depolar     --     0.0000                 0.0000                 0.0000
 Atom AN      X      Y      Z        X      Y      Z        X      Y      Z
   1   6    -0.14   0.17   0.00    -0.04   0.05   0.00    -0.00  -0.00  -0.00
   2   6     0.05   0.14  -0.00     0.01   0.03  -0.00     0.00  -0.00  -0.00
   3   6     0.01  -0.00  -0.00     0.00   0.00  -0.00    -0.00   0.00  -0.00
   4   6    -0.00   0.00   0.00     0.01  -0.01  -0.00     0.01  -0.00  -0.00
   5   6     0.02   0.07  -0.00    -0.08  -0.25   0.00    -0.00   0.00   0.00
   6   6    -0.01  -0.00   0.00    -0.01  -0.00   0.00     0.00   0.00   0.00
   7   1    -0.08  -0.24   0.00     0.29   0.88  -0.00    -0.00  -0.01   0.00
   8   8    -0.00   0.00  -0.00     0.00   0.00  -0.00     0.23   0.07  -0.00
   9   1     0.00  -0.00  -0.00    -0.01  -0.00  -0.00    -0.93  -0.27   0.00
  10   1    -0.16  -0.47   0.00    -0.04  -0.11   0.00    -0.00   0.00  -0.00
  11   1     0.50  -0.60  -0.00     0.14  -0.17  -0.00    -0.00   0.00  -0.00
  12   6     0.00   0.01  -0.00     0.00   0.00  -0.00    -0.00  -0.00  -0.00
  13   1    -0.00   0.00   0.01    -0.00   0.00   0.00     0.00   0.00  -0.01
  14   1    -0.00   0.00  -0.01    -0.00   0.00  -0.00     0.00   0.00   0.01
  15   1    -0.01  -0.03   0.00    -0.00  -0.02   0.00    -0.00  -0.00  -0.00
  16   6    -0.00   0.01   0.00    -0.00  -0.00   0.00     0.00   0.00  -0.00
  17   1    -0.00   0.00   0.00     0.01   0.02  -0.02    -0.00  -0.00   0.00
  18   1     0.00   0.00   0.01     0.01   0.00   0.02    -0.00  -0.00  -0.00
  19   1     0.02  -0.03  -0.01     0.00  -0.00  -0.00     0.00  -0.00   0.00
