      -----------------------------------------------------------      
     |                   =====================                   |     
     |                           x T B                           |     
     |                   =====================                   |     
     |                         S. Grimme                         |     
     |          Mulliken Center for Theoretical Chemistry        |     
     |                    University of Bonn                     |     
      -----------------------------------------------------------      

   * xtb version 6.4.1 (afa7bdf) compiled by 'ehlert@majestix' on 2021-06-10

   xtb is free software: you can redistribute it and/or modify it under
   the terms of the GNU Lesser General Public License as published by
   the Free Software Foundation, either version 3 of the License, or
   (at your option) any later version.
   
   xtb is distributed in the hope that it will be useful,
   but WITHOUT ANY WARRANTY; without even the implied warranty of
   MERCHANTABILITY or FITNESS FOR A PARTICULAR PURPOSE.  See the
   GNU Lesser General Public License for more details.
   
   Cite this work as:
   * C. Bannwarth, E. Caldeweyher, S. Ehlert, A. Hansen, P. Pracht,
     J. Seibert, S. Spicher, S. Grimme, WIREs Comput. Mol. Sci., 2020, 11,
     e01493. DOI: 10.1002/wcms.1493
   
   for GFN2-xTB:
   * C. Bannwarth, S. Ehlert and S. Grimme., J. Chem. Theory Comput., 2019,
     15, 1652-1671. DOI: 10.1021/acs.jctc.8b01176
   for GFN1-xTB:
   * S. Grimme, C. Bannwarth, P. Shushkov, J. Chem. Theory Comput., 2017,
     13, 1989-2009. DOI: 10.1021/acs.jctc.7b00118
   for GFN0-xTB:
   * P. Pracht, E. Caldeweyher, S. Ehlert, S. Grimme, ChemRxiv, 2019, preprint.
     DOI: 10.26434/chemrxiv.8326202.v1
   for GFN-FF:
   * S. Spicher and S. Grimme, Angew. Chem. Int. Ed., 2020, 59, 15665-15673.
     DOI: 10.1002/anie.202004239
   
   for DFT-D4:
   * E. Caldeweyher, C. Bannwarth and S. Grimme, J. Chem. Phys., 2017,
     147, 034112. DOI: 10.1063/1.4993215
   * E. Caldeweyher, S. Ehlert, A. Hansen, H. Neugebauer, S. Spicher,
     C. Bannwarth and S. Grimme, J. Chem. Phys., 2019, 150, 154122.
     DOI: 10.1063/1.5090222
   * E. Caldeweyher, J.-M. Mewes, S. Ehlert and S. Grimme, Phys. Chem. Chem. Phys.
     2020, 22, 8499-8512. DOI: 10.1039/D0CP00502A
   
   for sTDA-xTB:
   * S. Grimme and C. Bannwarth, J. Chem. Phys., 2016, 145, 054103.
     DOI: 10.1063/1.4959605
   
   in the mass-spec context:
   * V. Asgeirsson, C. Bauer and S. Grimme, Chem. Sci., 2017, 8, 4879.
     DOI: 10.1039/c7sc00601b
   * J. Koopman and S. Grimme, ACS Omega 2019, 4, 12, 15120-15133.
     DOI: 10.1021/acsomega.9b02011
   
   for metadynamics refer to:
   * S. Grimme, J. Chem. Theory Comput., 2019, 155, 2847-2862
     DOI: 10.1021/acs.jctc.9b00143
   
   for SPH calculations refer to:
   * S. Spicher and S. Grimme, J. Chem. Theory Comput., 2021, 17, 1701-1714
     DOI: 10.1021/acs.jctc.0c01306
   
   with help from (in alphabetical order)
   P. Atkinson, C. Bannwarth, F. Bohle, G. Brandenburg, E. Caldeweyher
   M. Checinski, S. Dohm, S. Ehlert, S. Ehrlich, I. Gerasimov, J. Koopman
   C. Lavigne, S. Lehtola, F. März, M. Müller, F. Musil, H. Neugebauer
   J. Pisarek, C. Plett, P. Pracht, J. Seibert, P. Shushkov, S. Spicher
   M. Stahn, M. Steiner, T. Strunk, J. Stückrath, T. Rose, and J. Unsleber
   
 * started run on 2021/11/15 at 09:23:10.864     

           -------------------------------------------------
          |                Calculation Setup                |
           -------------------------------------------------

          program call               : xtb 41_3-nitro-L-tyrosine.xyz --gfn2 --chrg 0 --uhf 0 --alpb water -P 1
          coordinate file            : 41_3-nitro-L-tyrosine.xyz
          omp threads                :                     1
          number of atoms            :                    26
          number of electrons        :                    86
          charge                     :                     0
          spin                       :                   0.0
          first test random number   :      0.28617142016281

   ID    Z sym.   atoms
    1    8 O      1-3, 25, 26
    2    7 N      4, 24
    3    6 C      5-13
    4    1 H      14-23

           -------------------------------------------------
          |                 G F N 2 - x T B                 |
           -------------------------------------------------

        Reference                      10.1021/acs.jctc.8b01176
      * Hamiltonian:
        H0-scaling (s, p, d)           1.850000    2.230000    2.230000
        zeta-weighting                 0.500000
      * Dispersion:
        s8                             2.700000
        a1                             0.520000
        a2                             5.000000
        s9                             5.000000
      * Repulsion:
        kExp                           1.500000    1.000000
        rExp                           1.000000
      * Coulomb:
        alpha                          2.000000
        third order                    shell-resolved
        anisotropic                    true
        a3                             3.000000
        a5                             4.000000
        cn-shift                       1.200000
        cn-exp                         4.000000
        max-rad                        5.000000

      * Solvation model:               ALPB
        Solvent                        water
        Parameter file                 internal GFN2-xTB/ALPB
        Dielectric constant                8.0200E+01
        Reference state                gsolv [1 M gas/solution]
        Free energy shift                  1.0808E-03 Eh       6.7819E-01 kcal/mol
        Temperature                        2.9815E+02 K
        Density                            1.0000E+00 kg/L
        Solvent mass                       1.8000E+01 g/mol
        Interaction kernel             P16
        Born radius scaling (c1)           1.4744E+00
        Born radii integrator          GBOBC
        Born offset                        0.0000E+00 a0       0.0000E+00 AA
        H-bond correction              true
        Ion screening                  false
        Surface tension                    1.0000E-05 Eh       1.5569E+01 dyn/cm
        Grid points                               230 per atom
q/qsh data taken from xtbrestart
CAMM data taken from xtbrestart

          ...................................................
          :                      SETUP                      :
          :.................................................:
          :  # basis functions                  74          :
          :  # atomic orbitals                  74          :
          :  # shells                           42          :
          :  # electrons                        86          :
          :  max. iterations                   250          :
          :  Hamiltonian                  GFN2-xTB          :
          :  restarted?                       true          :
          :  GBSA solvation                   true          :
          :  PC potential                    false          :
          :  electronic temp.          300.0000000     K    :
          :  accuracy                    1.0000000          :
          :  -> integral cutoff          0.2500000E+02      :
          :  -> integral neglect         0.1000000E-07      :
          :  -> SCF convergence          0.1000000E-05 Eh   :
          :  -> wf. convergence          0.1000000E-03 e    :
          :  Broyden damping             0.4000000          :
          ...................................................

 iter      E             dE          RMSdq      gap      omega  full diag
   1    -50.9950922 -0.509951E+02  0.845E-05    1.28       0.0  T
   2    -50.9950922 -0.273133E-10  0.546E-05    1.28     359.4  T
   3    -50.9950922 -0.576961E-11  0.356E-05    1.28     550.4  T

   *** convergence criteria satisfied after 3 iterations ***

         #    Occupation            Energy/Eh            Energy/eV
      -------------------------------------------------------------
         1        2.0000           -0.7828450             -21.3023
       ...           ...                  ...                  ...
        37        2.0000           -0.4586706             -12.4811
        38        2.0000           -0.4438867             -12.0788
        39        2.0000           -0.4432288             -12.0609
        40        2.0000           -0.4152362             -11.2992
        41        2.0000           -0.4116825             -11.2024
        42        2.0000           -0.4046681             -11.0116
        43        2.0000           -0.3847490             -10.4696 (HOMO)
        44                         -0.3378692              -9.1939 (LUMO)
        45                         -0.2493858              -6.7861
        46                         -0.2428287              -6.6077
        47                         -0.1952366              -5.3127
        48                         -0.1246221              -3.3911
       ...                                ...                  ...
        74                          0.6084599              16.5570
      -------------------------------------------------------------
                  HL-Gap            0.0468798 Eh            1.2757 eV
             Fermi-level           -0.3613091 Eh           -9.8317 eV

 SCC (total)                   0 d,  0 h,  0 min,  0.017 sec
 SCC setup                      ...        0 min,  0.001 sec (  5.263%)
 Dispersion                     ...        0 min,  0.000 sec (  1.793%)
 classical contributions        ...        0 min,  0.000 sec (  0.260%)
 integral evaluation            ...        0 min,  0.004 sec ( 24.700%)
 iterations                     ...        0 min,  0.004 sec ( 25.049%)
 molecular gradient             ...        0 min,  0.007 sec ( 41.313%)
 printout                       ...        0 min,  0.000 sec (  1.470%)

         :::::::::::::::::::::::::::::::::::::::::::::::::::::
         ::                     SUMMARY                     ::
         :::::::::::::::::::::::::::::::::::::::::::::::::::::
         :: total energy             -50.487025956048 Eh    ::
         :: total w/o Gsasa/hb       -50.479995606419 Eh    ::
         :: gradient norm              0.053833905366 Eh/a0 ::
         :: HOMO-LUMO gap              1.275664793730 eV    ::
         ::.................................................::
         :: SCC energy               -50.995092155383 Eh    ::
         :: -> isotropic ES            0.260766115357 Eh    ::
         :: -> anisotropic ES         -0.011947077364 Eh    ::
         :: -> anisotropic XC          0.007300472550 Eh    ::
         :: -> dispersion             -0.023766230850 Eh    ::
         :: -> Gsolv                  -0.086685195250 Eh    ::
         ::    -> Gelec               -0.079654845622 Eh    ::
         ::    -> Gsasa                0.007736784571 Eh    ::
         ::    -> Ghb                 -0.015847893898 Eh    ::
         ::    -> Gshift               0.001080759698 Eh    ::
         :: repulsion energy           0.507975314606 Eh    ::
         :: add. restraining           0.000000000000 Eh    ::
         :: total charge               0.000000000000 e     ::
         :::::::::::::::::::::::::::::::::::::::::::::::::::::

           -------------------------------------------------
          |                Property Printout                |
           -------------------------------------------------

    * Orbital Energies and Occupations

         #    Occupation            Energy/Eh            Energy/eV
      -------------------------------------------------------------
         1        2.0000           -0.7828450             -21.3023
       ...           ...                  ...                  ...
        31        2.0000           -0.4950372             -13.4706
        32        2.0000           -0.4892780             -13.3139
        33        2.0000           -0.4797809             -13.0555
        34        2.0000           -0.4748889             -12.9224
        35        2.0000           -0.4664321             -12.6923
        36        2.0000           -0.4631478             -12.6029
        37        2.0000           -0.4586706             -12.4811
        38        2.0000           -0.4438867             -12.0788
        39        2.0000           -0.4432288             -12.0609
        40        2.0000           -0.4152362             -11.2992
        41        2.0000           -0.4116825             -11.2024
        42        2.0000           -0.4046681             -11.0116
        43        2.0000           -0.3847490             -10.4696 (HOMO)
        44                         -0.3378692              -9.1939 (LUMO)
        45                         -0.2493858              -6.7861
        46                         -0.2428287              -6.6077
        47                         -0.1952366              -5.3127
        48                         -0.1246221              -3.3911
        49                         -0.0554648              -1.5093
        50                         -0.0380231              -1.0347
        51                          0.0374005               1.0177
        52                          0.0480961               1.3088
        53                          0.0707147               1.9242
        54                          0.0977042               2.6587
       ...                                ...                  ...
        74                          0.6084599              16.5570
      -------------------------------------------------------------
                  HL-Gap            0.0468798 Eh            1.2757 eV
             Fermi-level           -0.3613091 Eh           -9.8317 eV

     #   Z          covCN         q      C6AA      α(0)
     1   8 O        0.856    -0.617    26.531     6.906
     2   8 O        1.658    -0.401    20.876     6.168
     3   8 O        0.856    -0.618    26.564     6.910
     4   7 N        3.483    -0.183    24.948     7.418
     5   6 C        3.805    -0.081    22.036     6.683
     6   6 C        3.776    -0.007    20.733     6.488
     7   6 C        2.960     0.020    27.560     8.611
     8   6 C        2.919    -0.030    28.750     8.793
     9   6 C        2.919    -0.028    28.689     8.783
    10   6 C        2.902    -0.023    28.573     8.765
    11   6 C        2.912    -0.055    29.362     8.885
    12   6 C        2.686     0.365    20.814     7.466
    13   6 C        2.837     0.176    24.225     8.066
    14   1 H        0.924     0.086     1.914     2.164
    15   1 H        0.924     0.082     1.962     2.191
    16   1 H        0.924     0.092     1.864     2.135
    17   1 H        0.925     0.085     1.927     2.171
    18   1 H        0.925     0.098     1.803     2.100
    19   1 H        0.925     0.100     1.781     2.087
    20   1 H        0.857     0.309     0.687     1.299
    21   1 H        0.860     0.308     0.691     1.302
    22   1 H        0.803     0.386     0.511     1.122
    23   1 H        0.860     0.299     0.717     1.327
    24   7 N        2.759     0.546    13.528     5.463
    25   8 O        0.927    -0.439    22.443     6.353
    26   8 O        0.927    -0.470    23.094     6.445

 Mol. C6AA /au·bohr⁶  :       8047.827591
 Mol. C8AA /au·bohr⁸  :     187831.830441
 Mol. α(0) /au        :        136.098612


Wiberg/Mayer (AO) data.
largest (>0.10) Wiberg bond orders for each atom

 ---------------------------------------------------------------------------
     #   Z sym  total        # sym  WBO       # sym  WBO       # sym  WBO
 ---------------------------------------------------------------------------
     1   8 O    1.843 --    12 C    1.540     3 O    0.220
     2   8 O    2.183 --    13 C    1.170    22 H    0.776
     3   8 O    1.850 --    12 C    1.472     1 O    0.220
     4   7 N    3.637 --     6 C    0.955    21 H    0.896    23 H    0.894
                            20 H    0.833
     5   6 C    3.984 --     7 C    1.010     6 C    0.984    15 H    0.966
                            14 H    0.954
     6   6 C    3.931 --     5 C    0.984     4 N    0.955    16 H    0.953
                            12 C    0.895
     7   6 C    3.987 --     8 C    1.471     9 C    1.339     5 C    1.010
     8   6 C    3.982 --     7 C    1.471    10 C    1.330    17 H    0.958
                            11 C    0.108
     9   6 C    3.980 --    11 C    1.493     7 C    1.339    18 H    0.960
    10   6 C    3.934 --     8 C    1.330    13 C    1.265    24 N    1.029
    11   6 C    3.980 --     9 C    1.493    13 C    1.327    19 H    0.959
                             8 C    0.108
    12   6 C    3.936 --     1 O    1.540     3 O    1.472     6 C    0.895
    13   6 C    3.944 --    11 C    1.327    10 C    1.265     2 O    1.170
    14   1 H    0.992 --     5 C    0.954
    15   1 H    0.993 --     5 C    0.966
    16   1 H    0.992 --     6 C    0.953
    17   1 H    0.993 --     8 C    0.958
    18   1 H    0.990 --     9 C    0.960
    19   1 H    0.989 --    11 C    0.959
    20   1 H    0.904 --     4 N    0.833
    21   1 H    0.905 --     4 N    0.896
    22   1 H    0.851 --     2 O    0.776
    23   1 H    0.911 --     4 N    0.894
    24   7 N    3.892 --    25 O    1.433    26 O    1.358    10 C    1.029
    25   8 O    1.905 --    24 N    1.433    26 O    0.294
    26   8 O    1.887 --    24 N    1.358    25 O    0.294
 ---------------------------------------------------------------------------

Topologies differ in total number of bonds
Writing topology from bond orders to xtbtopo.mol

molecular dipole:
                 x           y           z       tot (Debye)
 q only:        1.659      -5.054       1.690
   full:        1.916      -4.803       1.774      13.895
molecular quadrupole (traceless):
                xx          xy          yy          xz          yz          zz
 q only:      -58.135      16.602      22.474     -18.405      -2.506      35.662
  q+dip:      -59.634      19.566      23.660     -18.087      -0.729      35.974
   full:      -60.860      19.477      22.019     -19.054      -1.080      38.841


           -------------------------------------------------
          | TOTAL ENERGY              -50.487025956048 Eh   |
          | GRADIENT NORM               0.053833905366 Eh/α |
          | HOMO-LUMO GAP               1.275664793730 eV   |
           -------------------------------------------------

------------------------------------------------------------------------
 * finished run on 2021/11/15 at 09:23:10.919     
------------------------------------------------------------------------
 total:
 * wall-time:     0 d,  0 h,  0 min,  0.055 sec
 *  cpu-time:     0 d,  0 h,  0 min,  0.031 sec
 * ratio c/w:     0.570 speedup
 SCF:
 * wall-time:     0 d,  0 h,  0 min,  0.017 sec
 *  cpu-time:     0 d,  0 h,  0 min,  0.016 sec
 * ratio c/w:     0.905 speedup

