      -----------------------------------------------------------      
     |                   =====================                   |     
     |                           x T B                           |     
     |                   =====================                   |     
     |                         S. Grimme                         |     
     |          Mulliken Center for Theoretical Chemistry        |     
     |                    University of Bonn                     |     
      -----------------------------------------------------------      

   * xtb version 6.4.1 (afa7bdf) compiled by 'ehlert@majestix' on 2021-06-10

   xtb is free software: you can redistribute it and/or modify it under
   the terms of the GNU Lesser General Public License as published by
   the Free Software Foundation, either version 3 of the License, or
   (at your option) any later version.
   
   xtb is distributed in the hope that it will be useful,
   but WITHOUT ANY WARRANTY; without even the implied warranty of
   MERCHANTABILITY or FITNESS FOR A PARTICULAR PURPOSE.  See the
   GNU Lesser General Public License for more details.
   
   Cite this work as:
   * C. Bannwarth, E. Caldeweyher, S. Ehlert, A. Hansen, P. Pracht,
     J. Seibert, S. Spicher, S. Grimme, WIREs Comput. Mol. Sci., 2020, 11,
     e01493. DOI: 10.1002/wcms.1493
   
   for GFN2-xTB:
   * C. Bannwarth, S. Ehlert and S. Grimme., J. Chem. Theory Comput., 2019,
     15, 1652-1671. DOI: 10.1021/acs.jctc.8b01176
   for GFN1-xTB:
   * S. Grimme, C. Bannwarth, P. Shushkov, J. Chem. Theory Comput., 2017,
     13, 1989-2009. DOI: 10.1021/acs.jctc.7b00118
   for GFN0-xTB:
   * P. Pracht, E. Caldeweyher, S. Ehlert, S. Grimme, ChemRxiv, 2019, preprint.
     DOI: 10.26434/chemrxiv.8326202.v1
   for GFN-FF:
   * S. Spicher and S. Grimme, Angew. Chem. Int. Ed., 2020, 59, 15665-15673.
     DOI: 10.1002/anie.202004239
   
   for DFT-D4:
   * E. Caldeweyher, C. Bannwarth and S. Grimme, J. Chem. Phys., 2017,
     147, 034112. DOI: 10.1063/1.4993215
   * E. Caldeweyher, S. Ehlert, A. Hansen, H. Neugebauer, S. Spicher,
     C. Bannwarth and S. Grimme, J. Chem. Phys., 2019, 150, 154122.
     DOI: 10.1063/1.5090222
   * E. Caldeweyher, J.-M. Mewes, S. Ehlert and S. Grimme, Phys. Chem. Chem. Phys.
     2020, 22, 8499-8512. DOI: 10.1039/D0CP00502A
   
   for sTDA-xTB:
   * S. Grimme and C. Bannwarth, J. Chem. Phys., 2016, 145, 054103.
     DOI: 10.1063/1.4959605
   
   in the mass-spec context:
   * V. Asgeirsson, C. Bauer and S. Grimme, Chem. Sci., 2017, 8, 4879.
     DOI: 10.1039/c7sc00601b
   * J. Koopman and S. Grimme, ACS Omega 2019, 4, 12, 15120-15133.
     DOI: 10.1021/acsomega.9b02011
   
   for metadynamics refer to:
   * S. Grimme, J. Chem. Theory Comput., 2019, 155, 2847-2862
     DOI: 10.1021/acs.jctc.9b00143
   
   for SPH calculations refer to:
   * S. Spicher and S. Grimme, J. Chem. Theory Comput., 2021, 17, 1701-1714
     DOI: 10.1021/acs.jctc.0c01306
   
   with help from (in alphabetical order)
   P. Atkinson, C. Bannwarth, F. Bohle, G. Brandenburg, E. Caldeweyher
   M. Checinski, S. Dohm, S. Ehlert, S. Ehrlich, I. Gerasimov, J. Koopman
   C. Lavigne, S. Lehtola, F. März, M. Müller, F. Musil, H. Neugebauer
   J. Pisarek, C. Plett, P. Pracht, J. Seibert, P. Shushkov, S. Spicher
   M. Stahn, M. Steiner, T. Strunk, J. Stückrath, T. Rose, and J. Unsleber
   
 * started run on 2021/11/15 at 09:23:07.643     

           -------------------------------------------------
          |                Calculation Setup                |
           -------------------------------------------------

          program call               : xtb 06_4-ethyl-2-methoxyphenol.xyz --gfn2 --chrg 0 --uhf 0 --alpb water -P 1
          coordinate file            : 06_4-ethyl-2-methoxyphenol.xyz
          omp threads                :                     1
          number of atoms            :                    23
          number of electrons        :                    60
          charge                     :                     0
          spin                       :                   0.0
          first test random number   :      0.23020897785563

   ID    Z sym.   atoms
    1    6 C      1-6, 11, 17, 20
    2    8 O      7, 10
    3    1 H      8, 9, 12-16, 18, 19, 21-23

           -------------------------------------------------
          |                 G F N 2 - x T B                 |
           -------------------------------------------------

        Reference                      10.1021/acs.jctc.8b01176
      * Hamiltonian:
        H0-scaling (s, p, d)           1.850000    2.230000    2.230000
        zeta-weighting                 0.500000
      * Dispersion:
        s8                             2.700000
        a1                             0.520000
        a2                             5.000000
        s9                             5.000000
      * Repulsion:
        kExp                           1.500000    1.000000
        rExp                           1.000000
      * Coulomb:
        alpha                          2.000000
        third order                    shell-resolved
        anisotropic                    true
        a3                             3.000000
        a5                             4.000000
        cn-shift                       1.200000
        cn-exp                         4.000000
        max-rad                        5.000000

      * Solvation model:               ALPB
        Solvent                        water
        Parameter file                 internal GFN2-xTB/ALPB
        Dielectric constant                8.0200E+01
        Reference state                gsolv [1 M gas/solution]
        Free energy shift                  1.0808E-03 Eh       6.7819E-01 kcal/mol
        Temperature                        2.9815E+02 K
        Density                            1.0000E+00 kg/L
        Solvent mass                       1.8000E+01 g/mol
        Interaction kernel             P16
        Born radius scaling (c1)           1.4744E+00
        Born radii integrator          GBOBC
        Born offset                        0.0000E+00 a0       0.0000E+00 AA
        H-bond correction              true
        Ion screening                  false
        Surface tension                    1.0000E-05 Eh       1.5569E+01 dyn/cm
        Grid points                               230 per atom
q/qsh data taken from xtbrestart
CAMM data taken from xtbrestart

          ...................................................
          :                      SETUP                      :
          :.................................................:
          :  # basis functions                  56          :
          :  # atomic orbitals                  56          :
          :  # shells                           34          :
          :  # electrons                        60          :
          :  max. iterations                   250          :
          :  Hamiltonian                  GFN2-xTB          :
          :  restarted?                       true          :
          :  GBSA solvation                   true          :
          :  PC potential                    false          :
          :  electronic temp.          300.0000000     K    :
          :  accuracy                    1.0000000          :
          :  -> integral cutoff          0.2500000E+02      :
          :  -> integral neglect         0.1000000E-07      :
          :  -> SCF convergence          0.1000000E-05 Eh   :
          :  -> wf. convergence          0.1000000E-03 e    :
          :  Broyden damping             0.4000000          :
          ...................................................

 iter      E             dE          RMSdq      gap      omega  full diag
   1    -33.9742749 -0.339743E+02  0.175E-04    4.05       0.0  T
   2    -33.9742749 -0.734062E-10  0.112E-04    4.05     185.5  T
   3    -33.9742749 -0.909495E-11  0.683E-05    4.05     305.4  T

   *** convergence criteria satisfied after 3 iterations ***

         #    Occupation            Energy/Eh            Energy/eV
      -------------------------------------------------------------
         1        2.0000           -0.7218353             -19.6421
       ...           ...                  ...                  ...
        24        2.0000           -0.4552573             -12.3882
        25        2.0000           -0.4354705             -11.8498
        26        2.0000           -0.4334499             -11.7948
        27        2.0000           -0.4268825             -11.6161
        28        2.0000           -0.4201031             -11.4316
        29        2.0000           -0.3903385             -10.6217
        30        2.0000           -0.3664784              -9.9724 (HOMO)
        31                         -0.2177356              -5.9249 (LUMO)
        32                         -0.2109170              -5.7393
        33                         -0.0904196              -2.4604
        34                          0.0031096               0.0846
        35                          0.0695875               1.8936
       ...                                ...                  ...
        56                          0.6435671              17.5124
      -------------------------------------------------------------
                  HL-Gap            0.1487428 Eh            4.0475 eV
             Fermi-level           -0.2921070 Eh           -7.9486 eV

 SCC (total)                   0 d,  0 h,  0 min,  0.011 sec
 SCC setup                      ...        0 min,  0.001 sec (  5.144%)
 Dispersion                     ...        0 min,  0.000 sec (  1.639%)
 classical contributions        ...        0 min,  0.000 sec (  0.271%)
 integral evaluation            ...        0 min,  0.002 sec ( 20.603%)
 iterations                     ...        0 min,  0.003 sec ( 27.397%)
 molecular gradient             ...        0 min,  0.005 sec ( 43.011%)
 printout                       ...        0 min,  0.000 sec (  1.703%)

         :::::::::::::::::::::::::::::::::::::::::::::::::::::
         ::                     SUMMARY                     ::
         :::::::::::::::::::::::::::::::::::::::::::::::::::::
         :: total energy             -33.528044170368 Eh    ::
         :: total w/o Gsasa/hb       -33.523807406432 Eh    ::
         :: gradient norm              0.024946219096 Eh/a0 ::
         :: HOMO-LUMO gap              4.047496561327 eV    ::
         ::.................................................::
         :: SCC energy               -33.974274872468 Eh    ::
         :: -> isotropic ES            0.045565913424 Eh    ::
         :: -> anisotropic ES          0.004261900510 Eh    ::
         :: -> anisotropic XC          0.010537820943 Eh    ::
         :: -> dispersion             -0.018073344316 Eh    ::
         :: -> Gsolv                  -0.009551788377 Eh    ::
         ::    -> Gelec               -0.005315024442 Eh    ::
         ::    -> Gsasa                0.000431066431 Eh    ::
         ::    -> Ghb                 -0.005748590065 Eh    ::
         ::    -> Gshift               0.001080759698 Eh    ::
         :: repulsion energy           0.446140039933 Eh    ::
         :: add. restraining           0.000000000000 Eh    ::
         :: total charge               0.000000000000 e     ::
         :::::::::::::::::::::::::::::::::::::::::::::::::::::

           -------------------------------------------------
          |                Property Printout                |
           -------------------------------------------------

    * Orbital Energies and Occupations

         #    Occupation            Energy/Eh            Energy/eV
      -------------------------------------------------------------
         1        2.0000           -0.7218353             -19.6421
       ...           ...                  ...                  ...
        18        2.0000           -0.4935147             -13.4292
        19        2.0000           -0.4862299             -13.2310
        20        2.0000           -0.4797247             -13.0540
        21        2.0000           -0.4696485             -12.7798
        22        2.0000           -0.4656274             -12.6704
        23        2.0000           -0.4631792             -12.6037
        24        2.0000           -0.4552573             -12.3882
        25        2.0000           -0.4354705             -11.8498
        26        2.0000           -0.4334499             -11.7948
        27        2.0000           -0.4268825             -11.6161
        28        2.0000           -0.4201031             -11.4316
        29        2.0000           -0.3903385             -10.6217
        30        2.0000           -0.3664784              -9.9724 (HOMO)
        31                         -0.2177356              -5.9249 (LUMO)
        32                         -0.2109170              -5.7393
        33                         -0.0904196              -2.4604
        34                          0.0031096               0.0846
        35                          0.0695875               1.8936
        36                          0.0859074               2.3377
        37                          0.1154114               3.1405
        38                          0.1230763               3.3491
        39                          0.1311427               3.5686
        40                          0.1507999               4.1035
        41                          0.1628823               4.4323
       ...                                ...                  ...
        56                          0.6435671              17.5124
      -------------------------------------------------------------
                  HL-Gap            0.1487428 Eh            4.0475 eV
             Fermi-level           -0.2921070 Eh           -7.9486 eV

     #   Z          covCN         q      C6AA      α(0)
     1   6 C        2.961    -0.001    28.044     8.686
     2   6 C        2.916    -0.081    30.019     8.985
     3   6 C        2.856     0.103    25.709     8.311
     4   6 C        2.842     0.115    25.460     8.269
     5   6 C        2.911    -0.067    29.675     8.933
     6   6 C        2.918    -0.057    29.405     8.892
     7   8 O        1.658    -0.458    22.015     6.334
     8   1 H        0.805     0.369     0.547     1.161
     9   1 H        0.925     0.048     2.344     2.394
    10   8 O        1.703    -0.311    19.184     5.914
    11   6 C        3.638     0.021    20.586     6.527
    12   1 H        0.924     0.055     2.257     2.349
    13   1 H        0.924     0.079     1.985     2.203
    14   1 H        0.924     0.055     2.256     2.349
    15   1 H        0.925     0.043     2.408     2.427
    16   1 H        0.925     0.051     2.307     2.375
    17   6 C        3.802    -0.063    21.700     6.632
    18   1 H        0.924     0.042     2.427     2.436
    19   1 H        0.924     0.044     2.403     2.424
    20   6 C        3.748    -0.106    22.585     6.778
    21   1 H        0.924     0.037     2.494     2.469
    22   1 H        0.924     0.043     2.406     2.426
    23   1 H        0.924     0.037     2.483     2.464

 Mol. C6AA /au·bohr⁶  :       5210.485150
 Mol. C8AA /au·bohr⁸  :     120337.226120
 Mol. α(0) /au        :        111.738264


Wiberg/Mayer (AO) data.
largest (>0.10) Wiberg bond orders for each atom

 ---------------------------------------------------------------------------
     #   Z sym  total        # sym  WBO       # sym  WBO       # sym  WBO
 ---------------------------------------------------------------------------
     1   6 C    3.987 --     6 C    1.432     2 C    1.382    17 C    1.011
     2   6 C    3.983 --     3 C    1.412     1 C    1.382     9 H    0.963
     3   6 C    3.930 --     2 C    1.412     4 C    1.286    10 O    1.038
     4   6 C    3.939 --     5 C    1.411     3 C    1.286     7 O    1.062
     5   6 C    3.985 --     6 C    1.415     4 C    1.411    16 H    0.967
     6   6 C    3.988 --     1 C    1.432     5 C    1.415    15 H    0.969
     7   8 O    2.064 --     4 C    1.062     8 H    0.841
     8   1 H    0.864 --     7 O    0.841
     9   1 H    0.998 --     2 C    0.963
    10   8 O    2.192 --     3 C    1.038    11 C    0.967
    11   6 C    3.930 --    13 H    0.978    14 H    0.977    12 H    0.977
                            10 O    0.967
    12   1 H    0.997 --    11 C    0.977
    13   1 H    0.993 --    11 C    0.978
    14   1 H    0.997 --    11 C    0.977
    15   1 H    0.998 --     6 C    0.969
    16   1 H    0.996 --     5 C    0.967
    17   6 C    3.996 --     1 C    1.011    20 C    1.002    18 H    0.975
                            19 H    0.972
    18   1 H    0.998 --    17 C    0.975
    19   1 H    0.998 --    17 C    0.972
    20   6 C    3.994 --    17 C    1.002    21 H    0.989    23 H    0.988
                            22 H    0.986
    21   1 H    0.999 --    20 C    0.989
    22   1 H    0.997 --    20 C    0.986
    23   1 H    0.999 --    20 C    0.988
 ---------------------------------------------------------------------------

Topologies differ in total number of bonds
Writing topology from bond orders to xtbtopo.mol

molecular dipole:
                 x           y           z       tot (Debye)
 q only:        0.294      -1.175       0.079
   full:        0.280      -1.416       0.085       3.674
molecular quadrupole (traceless):
                xx          xy          yy          xz          yz          zz
 q only:        2.260       6.526       1.055       0.221       0.209      -3.315
  q+dip:        2.508       7.982       2.138       0.639      -0.098      -4.646
   full:        1.815       7.963       1.220       0.179       0.174      -3.035


           -------------------------------------------------
          | TOTAL ENERGY              -33.528044170368 Eh   |
          | GRADIENT NORM               0.024946219096 Eh/α |
          | HOMO-LUMO GAP               4.047496561327 eV   |
           -------------------------------------------------

------------------------------------------------------------------------
 * finished run on 2021/11/15 at 09:23:07.678     
------------------------------------------------------------------------
 total:
 * wall-time:     0 d,  0 h,  0 min,  0.035 sec
 *  cpu-time:     0 d,  0 h,  0 min,  0.031 sec
 * ratio c/w:     0.891 speedup
 SCF:
 * wall-time:     0 d,  0 h,  0 min,  0.011 sec
 *  cpu-time:     0 d,  0 h,  0 min,  0.000 sec
 * ratio c/w:     0.000 speedup

