      -----------------------------------------------------------      
     |                   =====================                   |     
     |                           x T B                           |     
     |                   =====================                   |     
     |                         S. Grimme                         |     
     |          Mulliken Center for Theoretical Chemistry        |     
     |                    University of Bonn                     |     
      -----------------------------------------------------------      

   * xtb version 6.4.1 (afa7bdf) compiled by 'ehlert@majestix' on 2021-06-10

   xtb is free software: you can redistribute it and/or modify it under
   the terms of the GNU Lesser General Public License as published by
   the Free Software Foundation, either version 3 of the License, or
   (at your option) any later version.
   
   xtb is distributed in the hope that it will be useful,
   but WITHOUT ANY WARRANTY; without even the implied warranty of
   MERCHANTABILITY or FITNESS FOR A PARTICULAR PURPOSE.  See the
   GNU Lesser General Public License for more details.
   
   Cite this work as:
   * C. Bannwarth, E. Caldeweyher, S. Ehlert, A. Hansen, P. Pracht,
     J. Seibert, S. Spicher, S. Grimme, WIREs Comput. Mol. Sci., 2020, 11,
     e01493. DOI: 10.1002/wcms.1493
   
   for GFN2-xTB:
   * C. Bannwarth, S. Ehlert and S. Grimme., J. Chem. Theory Comput., 2019,
     15, 1652-1671. DOI: 10.1021/acs.jctc.8b01176
   for GFN1-xTB:
   * S. Grimme, C. Bannwarth, P. Shushkov, J. Chem. Theory Comput., 2017,
     13, 1989-2009. DOI: 10.1021/acs.jctc.7b00118
   for GFN0-xTB:
   * P. Pracht, E. Caldeweyher, S. Ehlert, S. Grimme, ChemRxiv, 2019, preprint.
     DOI: 10.26434/chemrxiv.8326202.v1
   for GFN-FF:
   * S. Spicher and S. Grimme, Angew. Chem. Int. Ed., 2020, 59, 15665-15673.
     DOI: 10.1002/anie.202004239
   
   for DFT-D4:
   * E. Caldeweyher, C. Bannwarth and S. Grimme, J. Chem. Phys., 2017,
     147, 034112. DOI: 10.1063/1.4993215
   * E. Caldeweyher, S. Ehlert, A. Hansen, H. Neugebauer, S. Spicher,
     C. Bannwarth and S. Grimme, J. Chem. Phys., 2019, 150, 154122.
     DOI: 10.1063/1.5090222
   * E. Caldeweyher, J.-M. Mewes, S. Ehlert and S. Grimme, Phys. Chem. Chem. Phys.
     2020, 22, 8499-8512. DOI: 10.1039/D0CP00502A
   
   for sTDA-xTB:
   * S. Grimme and C. Bannwarth, J. Chem. Phys., 2016, 145, 054103.
     DOI: 10.1063/1.4959605
   
   in the mass-spec context:
   * V. Asgeirsson, C. Bauer and S. Grimme, Chem. Sci., 2017, 8, 4879.
     DOI: 10.1039/c7sc00601b
   * J. Koopman and S. Grimme, ACS Omega 2019, 4, 12, 15120-15133.
     DOI: 10.1021/acsomega.9b02011
   
   for metadynamics refer to:
   * S. Grimme, J. Chem. Theory Comput., 2019, 155, 2847-2862
     DOI: 10.1021/acs.jctc.9b00143
   
   for SPH calculations refer to:
   * S. Spicher and S. Grimme, J. Chem. Theory Comput., 2021, 17, 1701-1714
     DOI: 10.1021/acs.jctc.0c01306
   
   with help from (in alphabetical order)
   P. Atkinson, C. Bannwarth, F. Bohle, G. Brandenburg, E. Caldeweyher
   M. Checinski, S. Dohm, S. Ehlert, S. Ehrlich, I. Gerasimov, J. Koopman
   C. Lavigne, S. Lehtola, F. März, M. Müller, F. Musil, H. Neugebauer
   J. Pisarek, C. Plett, P. Pracht, J. Seibert, P. Shushkov, S. Spicher
   M. Stahn, M. Steiner, T. Strunk, J. Stückrath, T. Rose, and J. Unsleber
   
 * started run on 2021/11/15 at 09:23:10.175     

           -------------------------------------------------
          |                Calculation Setup                |
           -------------------------------------------------

          program call               : xtb 35_1,3-dimethoxybenzene.xyz --gfn2 --chrg 0 --uhf 0 --alpb water -P 1
          coordinate file            : 35_1,3-dimethoxybenzene.xyz
          omp threads                :                     1
          number of atoms            :                    20
          number of electrons        :                    54
          charge                     :                     0
          spin                       :                   0.0
          first test random number   :      0.28617142016281

   ID    Z sym.   atoms
    1    6 C      1-6, 10, 16
    2    1 H      7, 8, 11-14, 17-20
    3    8 O      9, 15

           -------------------------------------------------
          |                 G F N 2 - x T B                 |
           -------------------------------------------------

        Reference                      10.1021/acs.jctc.8b01176
      * Hamiltonian:
        H0-scaling (s, p, d)           1.850000    2.230000    2.230000
        zeta-weighting                 0.500000
      * Dispersion:
        s8                             2.700000
        a1                             0.520000
        a2                             5.000000
        s9                             5.000000
      * Repulsion:
        kExp                           1.500000    1.000000
        rExp                           1.000000
      * Coulomb:
        alpha                          2.000000
        third order                    shell-resolved
        anisotropic                    true
        a3                             3.000000
        a5                             4.000000
        cn-shift                       1.200000
        cn-exp                         4.000000
        max-rad                        5.000000

      * Solvation model:               ALPB
        Solvent                        water
        Parameter file                 internal GFN2-xTB/ALPB
        Dielectric constant                8.0200E+01
        Reference state                gsolv [1 M gas/solution]
        Free energy shift                  1.0808E-03 Eh       6.7819E-01 kcal/mol
        Temperature                        2.9815E+02 K
        Density                            1.0000E+00 kg/L
        Solvent mass                       1.8000E+01 g/mol
        Interaction kernel             P16
        Born radius scaling (c1)           1.4744E+00
        Born radii integrator          GBOBC
        Born offset                        0.0000E+00 a0       0.0000E+00 AA
        H-bond correction              true
        Ion screening                  false
        Surface tension                    1.0000E-05 Eh       1.5569E+01 dyn/cm
        Grid points                               230 per atom
q/qsh data taken from xtbrestart
CAMM data taken from xtbrestart

          ...................................................
          :                      SETUP                      :
          :.................................................:
          :  # basis functions                  50          :
          :  # atomic orbitals                  50          :
          :  # shells                           30          :
          :  # electrons                        54          :
          :  max. iterations                   250          :
          :  Hamiltonian                  GFN2-xTB          :
          :  restarted?                       true          :
          :  GBSA solvation                   true          :
          :  PC potential                    false          :
          :  electronic temp.          300.0000000     K    :
          :  accuracy                    1.0000000          :
          :  -> integral cutoff          0.2500000E+02      :
          :  -> integral neglect         0.1000000E-07      :
          :  -> SCF convergence          0.1000000E-05 Eh   :
          :  -> wf. convergence          0.1000000E-03 e    :
          :  Broyden damping             0.4000000          :
          ...................................................

 iter      E             dE          RMSdq      gap      omega  full diag
   1    -30.7468886 -0.307469E+02  0.693E-05    4.17       0.0  T
   2    -30.7468886 -0.160796E-10  0.454E-05    4.17     492.1  T
   3    -30.7468886 -0.381917E-11  0.298E-05    4.17     749.7  T

   *** convergence criteria satisfied after 3 iterations ***

         #    Occupation            Energy/Eh            Energy/eV
      -------------------------------------------------------------
         1        2.0000           -0.7157795             -19.4774
       ...           ...                  ...                  ...
        21        2.0000           -0.4621634             -12.5761
        22        2.0000           -0.4592282             -12.4962
        23        2.0000           -0.4389260             -11.9438
        24        2.0000           -0.4330917             -11.7850
        25        2.0000           -0.4258935             -11.5892
        26        2.0000           -0.3883194             -10.5667
        27        2.0000           -0.3743649             -10.1870 (HOMO)
        28                         -0.2211699              -6.0183 (LUMO)
        29                         -0.2111718              -5.7463
        30                         -0.0906851              -2.4677
        31                          0.0103252               0.2810
        32                          0.0267608               0.7282
       ...                                ...                  ...
        50                          0.6556187              17.8403
      -------------------------------------------------------------
                  HL-Gap            0.1531950 Eh            4.1686 eV
             Fermi-level           -0.2977674 Eh           -8.1027 eV

 SCC (total)                   0 d,  0 h,  0 min,  0.012 sec
 SCC setup                      ...        0 min,  0.001 sec (  5.696%)
 Dispersion                     ...        0 min,  0.000 sec (  1.569%)
 classical contributions        ...        0 min,  0.000 sec (  0.280%)
 integral evaluation            ...        0 min,  0.002 sec ( 16.585%)
 iterations                     ...        0 min,  0.003 sec ( 27.213%)
 molecular gradient             ...        0 min,  0.006 sec ( 46.879%)
 printout                       ...        0 min,  0.000 sec (  1.553%)

         :::::::::::::::::::::::::::::::::::::::::::::::::::::
         ::                     SUMMARY                     ::
         :::::::::::::::::::::::::::::::::::::::::::::::::::::
         :: total energy             -30.350013070717 Eh    ::
         :: total w/o Gsasa/hb       -30.349667062520 Eh    ::
         :: gradient norm              0.019884783968 Eh/a0 ::
         :: HOMO-LUMO gap              4.168647887673 eV    ::
         ::.................................................::
         :: SCC energy               -30.746888640404 Eh    ::
         :: -> isotropic ES            0.037199946775 Eh    ::
         :: -> anisotropic ES          0.003950991188 Eh    ::
         :: -> anisotropic XC          0.009564931732 Eh    ::
         :: -> dispersion             -0.015034286320 Eh    ::
         :: -> Gsolv                  -0.005415932254 Eh    ::
         ::    -> Gelec               -0.005069924057 Eh    ::
         ::    -> Gsasa                0.000093695402 Eh    ::
         ::    -> Ghb                 -0.001520463297 Eh    ::
         ::    -> Gshift               0.001080759698 Eh    ::
         :: repulsion energy           0.396866415588 Eh    ::
         :: add. restraining           0.000000000000 Eh    ::
         :: total charge              -0.000000000000 e     ::
         :::::::::::::::::::::::::::::::::::::::::::::::::::::

           -------------------------------------------------
          |                Property Printout                |
           -------------------------------------------------

    * Orbital Energies and Occupations

         #    Occupation            Energy/Eh            Energy/eV
      -------------------------------------------------------------
         1        2.0000           -0.7157795             -19.4774
       ...           ...                  ...                  ...
        15        2.0000           -0.5231608             -14.2359
        16        2.0000           -0.5117115             -13.9244
        17        2.0000           -0.4864286             -13.2364
        18        2.0000           -0.4834778             -13.1561
        19        2.0000           -0.4752219             -12.9314
        20        2.0000           -0.4642315             -12.6324
        21        2.0000           -0.4621634             -12.5761
        22        2.0000           -0.4592282             -12.4962
        23        2.0000           -0.4389260             -11.9438
        24        2.0000           -0.4330917             -11.7850
        25        2.0000           -0.4258935             -11.5892
        26        2.0000           -0.3883194             -10.5667
        27        2.0000           -0.3743649             -10.1870 (HOMO)
        28                         -0.2211699              -6.0183 (LUMO)
        29                         -0.2111718              -5.7463
        30                         -0.0906851              -2.4677
        31                          0.0103252               0.2810
        32                          0.0267608               0.7282
        33                          0.1033429               2.8121
        34                          0.1118506               3.0436
        35                          0.1237453               3.3673
        36                          0.1420200               3.8646
        37                          0.1531642               4.1678
        38                          0.1688877               4.5957
       ...                                ...                  ...
        50                          0.6556187              17.8403
      -------------------------------------------------------------
                  HL-Gap            0.1531950 Eh            4.1686 eV
             Fermi-level           -0.2977674 Eh           -8.1027 eV

     #   Z          covCN         q      C6AA      α(0)
     1   6 C        2.908    -0.085    30.136     9.001
     2   6 C        2.862     0.138    24.982     8.193
     3   6 C        2.911    -0.099    30.484     9.054
     4   6 C        2.861     0.140    24.945     8.187
     5   6 C        2.910    -0.074    29.856     8.960
     6   6 C        2.918    -0.038    28.956     8.824
     7   1 H        0.925     0.051     2.306     2.375
     8   1 H        0.925     0.049     2.327     2.385
     9   8 O        1.703    -0.303    19.039     5.891
    10   6 C        3.639     0.020    20.607     6.529
    11   1 H        0.924     0.055     2.260     2.351
    12   1 H        0.924     0.081     1.967     2.193
    13   1 H        0.924     0.055     2.260     2.351
    14   1 H        0.926     0.050     2.325     2.385
    15   8 O        1.703    -0.305    19.076     5.897
    16   6 C        3.639     0.020    20.604     6.529
    17   1 H        0.924     0.055     2.256     2.349
    18   1 H        0.924     0.080     1.976     2.198
    19   1 H        0.924     0.055     2.256     2.349
    20   1 H        0.925     0.054     2.265     2.353

 Mol. C6AA /au·bohr⁶  :       4148.066998
 Mol. C8AA /au·bohr⁸  :      96374.855816
 Mol. α(0) /au        :        100.353172


Wiberg/Mayer (AO) data.
largest (>0.10) Wiberg bond orders for each atom

 ---------------------------------------------------------------------------
     #   Z sym  total        # sym  WBO       # sym  WBO       # sym  WBO
 ---------------------------------------------------------------------------
     1   6 C    3.982 --     6 C    1.413     2 C    1.385    14 H    0.965
     2   6 C    3.933 --     1 C    1.385     3 C    1.347    15 O    1.057
     3   6 C    3.977 --     4 C    1.402     2 C    1.347    20 H    0.963
                             6 C    0.101
     4   6 C    3.934 --     3 C    1.402     5 C    1.332     9 O    1.059
     5   6 C    3.983 --     6 C    1.476     4 C    1.332     7 H    0.968
     6   6 C    3.990 --     5 C    1.476     1 C    1.413     8 H    0.970
                             3 C    0.101
     7   1 H    0.997 --     5 C    0.968
     8   1 H    0.997 --     6 C    0.970
     9   8 O    2.207 --     4 C    1.059    10 C    0.969
    10   6 C    3.930 --    12 H    0.978    11 H    0.977    13 H    0.977
                             9 O    0.969
    11   1 H    0.997 --    10 C    0.977
    12   1 H    0.993 --    10 C    0.978
    13   1 H    0.997 --    10 C    0.977
    14   1 H    0.997 --     1 C    0.965
    15   8 O    2.205 --     2 C    1.057    16 C    0.969
    16   6 C    3.930 --    18 H    0.978    19 H    0.977    17 H    0.977
                            15 O    0.969
    17   1 H    0.997 --    16 C    0.977
    18   1 H    0.993 --    16 C    0.978
    19   1 H    0.997 --    16 C    0.977
    20   1 H    0.997 --     3 C    0.963
 ---------------------------------------------------------------------------

Topologies differ in total number of bonds
Writing topology from bond orders to xtbtopo.mol

molecular dipole:
                 x           y           z       tot (Debye)
 q only:       -0.493      -0.252      -0.000
   full:       -0.596      -0.289      -0.000       1.683
molecular quadrupole (traceless):
                xx          xy          yy          xz          yz          zz
 q only:        6.831      -5.637      -1.240       0.000       0.000      -5.591
  q+dip:        6.419      -6.162      -0.172       0.000       0.000      -6.246
   full:        6.109      -6.472      -1.236       0.000       0.000      -4.872


           -------------------------------------------------
          | TOTAL ENERGY              -30.350013070717 Eh   |
          | GRADIENT NORM               0.019884783968 Eh/α |
          | HOMO-LUMO GAP               4.168647887673 eV   |
           -------------------------------------------------

------------------------------------------------------------------------
 * finished run on 2021/11/15 at 09:23:10.213     
------------------------------------------------------------------------
 total:
 * wall-time:     0 d,  0 h,  0 min,  0.038 sec
 *  cpu-time:     0 d,  0 h,  0 min,  0.031 sec
 * ratio c/w:     0.831 speedup
 SCF:
 * wall-time:     0 d,  0 h,  0 min,  0.012 sec
 *  cpu-time:     0 d,  0 h,  0 min,  0.016 sec
 * ratio c/w:     1.288 speedup

