      -----------------------------------------------------------      
     |                   =====================                   |     
     |                           x T B                           |     
     |                   =====================                   |     
     |                         S. Grimme                         |     
     |          Mulliken Center for Theoretical Chemistry        |     
     |                    University of Bonn                     |     
      -----------------------------------------------------------      

   * xtb version 6.4.1 (afa7bdf) compiled by 'ehlert@majestix' on 2021-06-10

   xtb is free software: you can redistribute it and/or modify it under
   the terms of the GNU Lesser General Public License as published by
   the Free Software Foundation, either version 3 of the License, or
   (at your option) any later version.
   
   xtb is distributed in the hope that it will be useful,
   but WITHOUT ANY WARRANTY; without even the implied warranty of
   MERCHANTABILITY or FITNESS FOR A PARTICULAR PURPOSE.  See the
   GNU Lesser General Public License for more details.
   
   Cite this work as:
   * C. Bannwarth, E. Caldeweyher, S. Ehlert, A. Hansen, P. Pracht,
     J. Seibert, S. Spicher, S. Grimme, WIREs Comput. Mol. Sci., 2020, 11,
     e01493. DOI: 10.1002/wcms.1493
   
   for GFN2-xTB:
   * C. Bannwarth, S. Ehlert and S. Grimme., J. Chem. Theory Comput., 2019,
     15, 1652-1671. DOI: 10.1021/acs.jctc.8b01176
   for GFN1-xTB:
   * S. Grimme, C. Bannwarth, P. Shushkov, J. Chem. Theory Comput., 2017,
     13, 1989-2009. DOI: 10.1021/acs.jctc.7b00118
   for GFN0-xTB:
   * P. Pracht, E. Caldeweyher, S. Ehlert, S. Grimme, ChemRxiv, 2019, preprint.
     DOI: 10.26434/chemrxiv.8326202.v1
   for GFN-FF:
   * S. Spicher and S. Grimme, Angew. Chem. Int. Ed., 2020, 59, 15665-15673.
     DOI: 10.1002/anie.202004239
   
   for DFT-D4:
   * E. Caldeweyher, C. Bannwarth and S. Grimme, J. Chem. Phys., 2017,
     147, 034112. DOI: 10.1063/1.4993215
   * E. Caldeweyher, S. Ehlert, A. Hansen, H. Neugebauer, S. Spicher,
     C. Bannwarth and S. Grimme, J. Chem. Phys., 2019, 150, 154122.
     DOI: 10.1063/1.5090222
   * E. Caldeweyher, J.-M. Mewes, S. Ehlert and S. Grimme, Phys. Chem. Chem. Phys.
     2020, 22, 8499-8512. DOI: 10.1039/D0CP00502A
   
   for sTDA-xTB:
   * S. Grimme and C. Bannwarth, J. Chem. Phys., 2016, 145, 054103.
     DOI: 10.1063/1.4959605
   
   in the mass-spec context:
   * V. Asgeirsson, C. Bauer and S. Grimme, Chem. Sci., 2017, 8, 4879.
     DOI: 10.1039/c7sc00601b
   * J. Koopman and S. Grimme, ACS Omega 2019, 4, 12, 15120-15133.
     DOI: 10.1021/acsomega.9b02011
   
   for metadynamics refer to:
   * S. Grimme, J. Chem. Theory Comput., 2019, 155, 2847-2862
     DOI: 10.1021/acs.jctc.9b00143
   
   for SPH calculations refer to:
   * S. Spicher and S. Grimme, J. Chem. Theory Comput., 2021, 17, 1701-1714
     DOI: 10.1021/acs.jctc.0c01306
   
   with help from (in alphabetical order)
   P. Atkinson, C. Bannwarth, F. Bohle, G. Brandenburg, E. Caldeweyher
   M. Checinski, S. Dohm, S. Ehlert, S. Ehrlich, I. Gerasimov, J. Koopman
   C. Lavigne, S. Lehtola, F. März, M. Müller, F. Musil, H. Neugebauer
   J. Pisarek, C. Plett, P. Pracht, J. Seibert, P. Shushkov, S. Spicher
   M. Stahn, M. Steiner, T. Strunk, J. Stückrath, T. Rose, and J. Unsleber
   
 * started run on 2021/11/15 at 09:23:09.099     

           -------------------------------------------------
          |                Calculation Setup                |
           -------------------------------------------------

          program call               : xtb 22_3-methoxyaniline.xyz --gfn2 --chrg 0 --uhf 0 --alpb water -P 1
          coordinate file            : 22_3-methoxyaniline.xyz
          omp threads                :                     1
          number of atoms            :                    18
          number of electrons        :                    48
          charge                     :                     0
          spin                       :                   0.0
          first test random number   :      0.77641364792136

   ID    Z sym.   atoms
    1    6 C      1-6, 15
    2    1 H      7-10, 12, 13, 16-18
    3    7 N      11
    4    8 O      14

           -------------------------------------------------
          |                 G F N 2 - x T B                 |
           -------------------------------------------------

        Reference                      10.1021/acs.jctc.8b01176
      * Hamiltonian:
        H0-scaling (s, p, d)           1.850000    2.230000    2.230000
        zeta-weighting                 0.500000
      * Dispersion:
        s8                             2.700000
        a1                             0.520000
        a2                             5.000000
        s9                             5.000000
      * Repulsion:
        kExp                           1.500000    1.000000
        rExp                           1.000000
      * Coulomb:
        alpha                          2.000000
        third order                    shell-resolved
        anisotropic                    true
        a3                             3.000000
        a5                             4.000000
        cn-shift                       1.200000
        cn-exp                         4.000000
        max-rad                        5.000000

      * Solvation model:               ALPB
        Solvent                        water
        Parameter file                 internal GFN2-xTB/ALPB
        Dielectric constant                8.0200E+01
        Reference state                gsolv [1 M gas/solution]
        Free energy shift                  1.0808E-03 Eh       6.7819E-01 kcal/mol
        Temperature                        2.9815E+02 K
        Density                            1.0000E+00 kg/L
        Solvent mass                       1.8000E+01 g/mol
        Interaction kernel             P16
        Born radius scaling (c1)           1.4744E+00
        Born radii integrator          GBOBC
        Born offset                        0.0000E+00 a0       0.0000E+00 AA
        H-bond correction              true
        Ion screening                  false
        Surface tension                    1.0000E-05 Eh       1.5569E+01 dyn/cm
        Grid points                               230 per atom
q/qsh data taken from xtbrestart
CAMM data taken from xtbrestart

          ...................................................
          :                      SETUP                      :
          :.................................................:
          :  # basis functions                  45          :
          :  # atomic orbitals                  45          :
          :  # shells                           27          :
          :  # electrons                        48          :
          :  max. iterations                   250          :
          :  Hamiltonian                  GFN2-xTB          :
          :  restarted?                       true          :
          :  GBSA solvation                   true          :
          :  PC potential                    false          :
          :  electronic temp.          300.0000000     K    :
          :  accuracy                    1.0000000          :
          :  -> integral cutoff          0.2500000E+02      :
          :  -> integral neglect         0.1000000E-07      :
          :  -> SCF convergence          0.1000000E-05 Eh   :
          :  -> wf. convergence          0.1000000E-03 e    :
          :  Broyden damping             0.4000000          :
          ...................................................

 iter      E             dE          RMSdq      gap      omega  full diag
   1    -26.9389419 -0.269389E+02  0.112E-04    3.91       0.0  T
   2    -26.9389419 -0.510418E-10  0.757E-05    3.91     311.5  T
   3    -26.9389419 -0.157065E-10  0.504E-05    3.91     468.1  T

   *** convergence criteria satisfied after 3 iterations ***

         #    Occupation            Energy/Eh            Energy/eV
      -------------------------------------------------------------
         1        2.0000           -0.7106136             -19.3368
       ...           ...                  ...                  ...
        18        2.0000           -0.4562239             -12.4145
        19        2.0000           -0.4540779             -12.3561
        20        2.0000           -0.4318110             -11.7502
        21        2.0000           -0.4220228             -11.4838
        22        2.0000           -0.4178369             -11.3699
        23        2.0000           -0.3781770             -10.2907
        24        2.0000           -0.3551242              -9.6634 (HOMO)
        25                         -0.2113350              -5.7507 (LUMO)
        26                         -0.2021059              -5.4996
        27                         -0.0831900              -2.2637
        28                          0.0209375               0.5697
        29                          0.0522063               1.4206
       ...                                ...                  ...
        45                          0.6504912              17.7008
      -------------------------------------------------------------
                  HL-Gap            0.1437893 Eh            3.9127 eV
             Fermi-level           -0.2832296 Eh           -7.7071 eV

 SCC (total)                   0 d,  0 h,  0 min,  0.008 sec
 SCC setup                      ...        0 min,  0.000 sec (  6.109%)
 Dispersion                     ...        0 min,  0.000 sec (  2.293%)
 classical contributions        ...        0 min,  0.000 sec (  0.354%)
 integral evaluation            ...        0 min,  0.002 sec ( 22.570%)
 iterations                     ...        0 min,  0.002 sec ( 26.866%)
 molecular gradient             ...        0 min,  0.003 sec ( 39.336%)
 printout                       ...        0 min,  0.000 sec (  2.118%)

         :::::::::::::::::::::::::::::::::::::::::::::::::::::
         ::                     SUMMARY                     ::
         :::::::::::::::::::::::::::::::::::::::::::::::::::::
         :: total energy             -26.556179513082 Eh    ::
         :: total w/o Gsasa/hb       -26.551926419090 Eh    ::
         :: gradient norm              0.020469331962 Eh/a0 ::
         :: HOMO-LUMO gap              3.912705427094 eV    ::
         ::.................................................::
         :: SCC energy               -26.938941883069 Eh    ::
         :: -> isotropic ES            0.032443614292 Eh    ::
         :: -> anisotropic ES          0.006018962474 Eh    ::
         :: -> anisotropic XC          0.011985278733 Eh    ::
         :: -> dispersion             -0.013539966836 Eh    ::
         :: -> Gsolv                  -0.009449861654 Eh    ::
         ::    -> Gelec               -0.005196767662 Eh    ::
         ::    -> Gsasa               -0.001828259450 Eh    ::
         ::    -> Ghb                 -0.003505594240 Eh    ::
         ::    -> Gshift               0.001080759698 Eh    ::
         :: repulsion energy           0.382728375906 Eh    ::
         :: add. restraining           0.000000000000 Eh    ::
         :: total charge              -0.000000000000 e     ::
         :::::::::::::::::::::::::::::::::::::::::::::::::::::

           -------------------------------------------------
          |                Property Printout                |
           -------------------------------------------------

    * Orbital Energies and Occupations

         #    Occupation            Energy/Eh            Energy/eV
      -------------------------------------------------------------
         1        2.0000           -0.7106136             -19.3368
       ...           ...                  ...                  ...
        12        2.0000           -0.5117345             -13.9250
        13        2.0000           -0.5034511             -13.6996
        14        2.0000           -0.5017320             -13.6528
        15        2.0000           -0.4821119             -13.1189
        16        2.0000           -0.4765290             -12.9670
        17        2.0000           -0.4656139             -12.6700
        18        2.0000           -0.4562239             -12.4145
        19        2.0000           -0.4540779             -12.3561
        20        2.0000           -0.4318110             -11.7502
        21        2.0000           -0.4220228             -11.4838
        22        2.0000           -0.4178369             -11.3699
        23        2.0000           -0.3781770             -10.2907
        24        2.0000           -0.3551242              -9.6634 (HOMO)
        25                         -0.2113350              -5.7507 (LUMO)
        26                         -0.2021059              -5.4996
        27                         -0.0831900              -2.2637
        28                          0.0209375               0.5697
        29                          0.0522063               1.4206
        30                          0.1138417               3.0978
        31                          0.1244692               3.3870
        32                          0.1409295               3.8349
        33                          0.1567873               4.2664
        34                          0.1835808               4.9955
        35                          0.1882981               5.1239
       ...                                ...                  ...
        45                          0.6504912              17.7008
      -------------------------------------------------------------
                  HL-Gap            0.1437893 Eh            3.9127 eV
             Fermi-level           -0.2832296 Eh           -7.7071 eV

     #   Z          covCN         q      C6AA      α(0)
     1   6 C        2.910    -0.079    29.971     8.977
     2   6 C        2.859     0.135    25.049     8.203
     3   6 C        2.914    -0.103    30.610     9.072
     4   6 C        2.895     0.075    26.318     8.411
     5   6 C        2.913    -0.080    29.998     8.981
     6   6 C        2.915    -0.039    28.965     8.825
     7   1 H        0.925     0.034     2.535     2.490
     8   1 H        0.925     0.038     2.470     2.458
     9   1 H        0.925     0.033     2.544     2.494
    10   1 H        0.925     0.033     2.539     2.492
    11   7 N        2.638    -0.325    28.368     7.910
    12   1 H        0.860     0.195     1.133     1.668
    13   1 H        0.860     0.195     1.133     1.668
    14   8 O        1.703    -0.315    19.265     5.926
    15   6 C        3.638     0.025    20.527     6.517
    16   1 H        0.924     0.075     2.031     2.228
    17   1 H        0.924     0.052     2.300     2.372
    18   1 H        0.924     0.052     2.290     2.366

 Mol. C6AA /au·bohr⁶  :       3490.748374
 Mol. C8AA /au·bohr⁸  :      81634.673543
 Mol. α(0) /au        :         93.060215


Wiberg/Mayer (AO) data.
largest (>0.10) Wiberg bond orders for each atom

 ---------------------------------------------------------------------------
     #   Z sym  total        # sym  WBO       # sym  WBO       # sym  WBO
 ---------------------------------------------------------------------------
     1   6 C    3.982 --     6 C    1.450     2 C    1.343     7 H    0.970
     2   6 C    3.928 --     3 C    1.400     1 C    1.343    14 O    1.045
     3   6 C    3.974 --     2 C    1.400     4 C    1.345     8 H    0.963
     4   6 C    3.975 --     5 C    1.354     3 C    1.345    11 N    1.156
     5   6 C    3.983 --     6 C    1.443     4 C    1.354     9 H    0.969
     6   6 C    3.991 --     1 C    1.450     5 C    1.443    10 H    0.971
     7   1 H    0.999 --     1 C    0.970
     8   1 H    0.999 --     3 C    0.963
     9   1 H    0.999 --     5 C    0.969
    10   1 H    0.998 --     6 C    0.971
    11   7 N    3.217 --     4 C    1.156    13 H    0.943    12 H    0.942
    12   1 H    0.962 --    11 N    0.942
    13   1 H    0.962 --    11 N    0.943
    14   8 O    2.192 --     2 C    1.045    15 C    0.972
    15   6 C    3.934 --    16 H    0.979    17 H    0.977    18 H    0.977
                            14 O    0.972
    16   1 H    0.994 --    15 C    0.979
    17   1 H    0.997 --    15 C    0.977
    18   1 H    0.997 --    15 C    0.977
 ---------------------------------------------------------------------------

Topologies differ in total number of bonds
Writing topology from bond orders to xtbtopo.mol

molecular dipole:
                 x           y           z       tot (Debye)
 q only:       -0.424      -1.185       0.256
   full:       -0.409      -1.282       0.486       3.635
molecular quadrupole (traceless):
                xx          xy          yy          xz          yz          zz
 q only:        3.703      -1.158       1.340      -1.818      -1.498      -5.043
  q+dip:        4.435      -1.415       2.978      -3.464      -2.914      -7.413
   full:        3.700      -1.756       2.082      -3.488      -2.956      -5.782


           -------------------------------------------------
          | TOTAL ENERGY              -26.556179513082 Eh   |
          | GRADIENT NORM               0.020469331962 Eh/α |
          | HOMO-LUMO GAP               3.912705427094 eV   |
           -------------------------------------------------

------------------------------------------------------------------------
 * finished run on 2021/11/15 at 09:23:09.131     
------------------------------------------------------------------------
 total:
 * wall-time:     0 d,  0 h,  0 min,  0.032 sec
 *  cpu-time:     0 d,  0 h,  0 min,  0.031 sec
 * ratio c/w:     0.985 speedup
 SCF:
 * wall-time:     0 d,  0 h,  0 min,  0.008 sec
 *  cpu-time:     0 d,  0 h,  0 min,  0.016 sec
 * ratio c/w:     1.922 speedup

