      -----------------------------------------------------------      
     |                   =====================                   |     
     |                           x T B                           |     
     |                   =====================                   |     
     |                         S. Grimme                         |     
     |          Mulliken Center for Theoretical Chemistry        |     
     |                    University of Bonn                     |     
      -----------------------------------------------------------      

   * xtb version 6.4.1 (afa7bdf) compiled by 'ehlert@majestix' on 2021-06-10

   xtb is free software: you can redistribute it and/or modify it under
   the terms of the GNU Lesser General Public License as published by
   the Free Software Foundation, either version 3 of the License, or
   (at your option) any later version.
   
   xtb is distributed in the hope that it will be useful,
   but WITHOUT ANY WARRANTY; without even the implied warranty of
   MERCHANTABILITY or FITNESS FOR A PARTICULAR PURPOSE.  See the
   GNU Lesser General Public License for more details.
   
   Cite this work as:
   * C. Bannwarth, E. Caldeweyher, S. Ehlert, A. Hansen, P. Pracht,
     J. Seibert, S. Spicher, S. Grimme, WIREs Comput. Mol. Sci., 2020, 11,
     e01493. DOI: 10.1002/wcms.1493
   
   for GFN2-xTB:
   * C. Bannwarth, S. Ehlert and S. Grimme., J. Chem. Theory Comput., 2019,
     15, 1652-1671. DOI: 10.1021/acs.jctc.8b01176
   for GFN1-xTB:
   * S. Grimme, C. Bannwarth, P. Shushkov, J. Chem. Theory Comput., 2017,
     13, 1989-2009. DOI: 10.1021/acs.jctc.7b00118
   for GFN0-xTB:
   * P. Pracht, E. Caldeweyher, S. Ehlert, S. Grimme, ChemRxiv, 2019, preprint.
     DOI: 10.26434/chemrxiv.8326202.v1
   for GFN-FF:
   * S. Spicher and S. Grimme, Angew. Chem. Int. Ed., 2020, 59, 15665-15673.
     DOI: 10.1002/anie.202004239
   
   for DFT-D4:
   * E. Caldeweyher, C. Bannwarth and S. Grimme, J. Chem. Phys., 2017,
     147, 034112. DOI: 10.1063/1.4993215
   * E. Caldeweyher, S. Ehlert, A. Hansen, H. Neugebauer, S. Spicher,
     C. Bannwarth and S. Grimme, J. Chem. Phys., 2019, 150, 154122.
     DOI: 10.1063/1.5090222
   * E. Caldeweyher, J.-M. Mewes, S. Ehlert and S. Grimme, Phys. Chem. Chem. Phys.
     2020, 22, 8499-8512. DOI: 10.1039/D0CP00502A
   
   for sTDA-xTB:
   * S. Grimme and C. Bannwarth, J. Chem. Phys., 2016, 145, 054103.
     DOI: 10.1063/1.4959605
   
   in the mass-spec context:
   * V. Asgeirsson, C. Bauer and S. Grimme, Chem. Sci., 2017, 8, 4879.
     DOI: 10.1039/c7sc00601b
   * J. Koopman and S. Grimme, ACS Omega 2019, 4, 12, 15120-15133.
     DOI: 10.1021/acsomega.9b02011
   
   for metadynamics refer to:
   * S. Grimme, J. Chem. Theory Comput., 2019, 155, 2847-2862
     DOI: 10.1021/acs.jctc.9b00143
   
   for SPH calculations refer to:
   * S. Spicher and S. Grimme, J. Chem. Theory Comput., 2021, 17, 1701-1714
     DOI: 10.1021/acs.jctc.0c01306
   
   with help from (in alphabetical order)
   P. Atkinson, C. Bannwarth, F. Bohle, G. Brandenburg, E. Caldeweyher
   M. Checinski, S. Dohm, S. Ehlert, S. Ehrlich, I. Gerasimov, J. Koopman
   C. Lavigne, S. Lehtola, F. März, M. Müller, F. Musil, H. Neugebauer
   J. Pisarek, C. Plett, P. Pracht, J. Seibert, P. Shushkov, S. Spicher
   M. Stahn, M. Steiner, T. Strunk, J. Stückrath, T. Rose, and J. Unsleber
   
 * started run on 2021/11/15 at 09:36:22.941     

           -------------------------------------------------
          |                Calculation Setup                |
           -------------------------------------------------

          program call               : xtb 37_3,2-methoxy-phenoxyl-1,2-propanediol.xyz --gfn2 --chrg 0 --uhf 0 --alpb water --ohess -P 1
          coordinate file            : 37_3,2-methoxy-phenoxyl-1,2-propanediol.xyz
          omp threads                :                     1
          number of atoms            :                    28
          number of electrons        :                    78
          charge                     :                     0
          spin                       :                   0.0
          first test random number   :      0.06026400864238

   ID    Z sym.   atoms
    1    8 O      1-4
    2    6 C      5-14
    3    1 H      15-28

           -------------------------------------------------
          |                 G F N 2 - x T B                 |
           -------------------------------------------------

        Reference                      10.1021/acs.jctc.8b01176
      * Hamiltonian:
        H0-scaling (s, p, d)           1.850000    2.230000    2.230000
        zeta-weighting                 0.500000
      * Dispersion:
        s8                             2.700000
        a1                             0.520000
        a2                             5.000000
        s9                             5.000000
      * Repulsion:
        kExp                           1.500000    1.000000
        rExp                           1.000000
      * Coulomb:
        alpha                          2.000000
        third order                    shell-resolved
        anisotropic                    true
        a3                             3.000000
        a5                             4.000000
        cn-shift                       1.200000
        cn-exp                         4.000000
        max-rad                        5.000000

      * Solvation model:               ALPB
        Solvent                        water
        Parameter file                 internal GFN2-xTB/ALPB
        Dielectric constant                8.0200E+01
        Reference state                gsolv [1 M gas/solution]
        Free energy shift                  1.0808E-03 Eh       6.7819E-01 kcal/mol
        Temperature                        2.9815E+02 K
        Density                            1.0000E+00 kg/L
        Solvent mass                       1.8000E+01 g/mol
        Interaction kernel             P16
        Born radius scaling (c1)           1.4744E+00
        Born radii integrator          GBOBC
        Born offset                        0.0000E+00 a0       0.0000E+00 AA
        H-bond correction              true
        Ion screening                  false
        Surface tension                    1.0000E-05 Eh       1.5569E+01 dyn/cm
        Grid points                               230 per atom

          ...................................................
          :                      SETUP                      :
          :.................................................:
          :  # basis functions                  70          :
          :  # atomic orbitals                  70          :
          :  # shells                           42          :
          :  # electrons                        78          :
          :  max. iterations                   250          :
          :  Hamiltonian                  GFN2-xTB          :
          :  restarted?                      false          :
          :  GBSA solvation                   true          :
          :  PC potential                    false          :
          :  electronic temp.          300.0000000     K    :
          :  accuracy                    1.0000000          :
          :  -> integral cutoff          0.2500000E+02      :
          :  -> integral neglect         0.1000000E-07      :
          :  -> SCF convergence          0.1000000E-05 Eh   :
          :  -> wf. convergence          0.1000000E-03 e    :
          :  Broyden damping             0.4000000          :
          ...................................................

 iter      E             dE          RMSdq      gap      omega  full diag
   1    -45.2553564 -0.452554E+02  0.476E+00    4.17       0.0  T
   2    -45.2981100 -0.427536E-01  0.257E+00    4.13       1.0  T
   3    -45.2994792 -0.136921E-02  0.653E-01    4.05       1.0  T
   4    -45.2999356 -0.456392E-03  0.187E-01    4.13       1.0  T
   5    -45.3002681 -0.332570E-03  0.928E-02    4.12       1.0  T
   6    -45.3002997 -0.315322E-04  0.369E-02    4.12       1.0  T
   7    -45.3003049 -0.521787E-05  0.161E-02    4.13       1.2  T
   8    -45.3003067 -0.178533E-05  0.548E-03    4.12       3.4  T
   9    -45.3003068 -0.154079E-06  0.224E-03    4.12       8.5  T
  10    -45.3003069 -0.167029E-07  0.120E-03    4.13      15.8  T
  11    -45.3003069 -0.669127E-08  0.406E-04    4.12      46.6  T
  12    -45.3003069 -0.188958E-08  0.198E-04    4.12      95.6  T

   *** convergence criteria satisfied after 12 iterations ***

         #    Occupation            Energy/Eh            Energy/eV
      -------------------------------------------------------------
         1        2.0000           -0.7260737             -19.7575
       ...           ...                  ...                  ...
        33        2.0000           -0.4489756             -12.2172
        34        2.0000           -0.4384446             -11.9307
        35        2.0000           -0.4326785             -11.7738
        36        2.0000           -0.4187983             -11.3961
        37        2.0000           -0.4079259             -11.1002
        38        2.0000           -0.4000494             -10.8859
        39        2.0000           -0.3846801             -10.4677 (HOMO)
        40                         -0.2330905              -6.3427 (LUMO)
        41                         -0.2249261              -6.1206
        42                         -0.1053208              -2.8659
        43                         -0.0153667              -0.4181
        44                          0.0042503               0.1157
       ...                                ...                  ...
        70                          0.6406192              17.4321
      -------------------------------------------------------------
                  HL-Gap            0.1515896 Eh            4.1250 eV
             Fermi-level           -0.3088853 Eh           -8.4052 eV

 SCC (total)                   0 d,  0 h,  0 min,  0.023 sec
 SCC setup                      ...        0 min,  0.001 sec (  3.147%)
 Dispersion                     ...        0 min,  0.000 sec (  1.138%)
 classical contributions        ...        0 min,  0.000 sec (  0.170%)
 integral evaluation            ...        0 min,  0.003 sec ( 14.851%)
 iterations                     ...        0 min,  0.011 sec ( 48.072%)
 molecular gradient             ...        0 min,  0.007 sec ( 31.444%)
 printout                       ...        0 min,  0.000 sec (  1.062%)

         :::::::::::::::::::::::::::::::::::::::::::::::::::::
         ::                     SUMMARY                     ::
         :::::::::::::::::::::::::::::::::::::::::::::::::::::
         :: total energy             -44.803720417952 Eh    ::
         :: total w/o Gsasa/hb       -44.800094249540 Eh    ::
         :: gradient norm              0.033358465093 Eh/a0 ::
         :: HOMO-LUMO gap              4.124963472950 eV    ::
         ::.................................................::
         :: SCC energy               -45.300306859055 Eh    ::
         :: -> isotropic ES            0.097713964993 Eh    ::
         :: -> anisotropic ES          0.001120100792 Eh    ::
         :: -> anisotropic XC          0.007175151001 Eh    ::
         :: -> dispersion             -0.023783088461 Eh    ::
         :: -> Gsolv                  -0.014680427615 Eh    ::
         ::    -> Gelec               -0.011054259203 Eh    ::
         ::    -> Gsasa                0.001784646878 Eh    ::
         ::    -> Ghb                 -0.006491574988 Eh    ::
         ::    -> Gshift               0.001080759698 Eh    ::
         :: repulsion energy           0.496396699690 Eh    ::
         :: add. restraining           0.000000000000 Eh    ::
         :: total charge              -0.000000000000 e     ::
         :::::::::::::::::::::::::::::::::::::::::::::::::::::

      ----------------------------------------------------------- 
     |                   =====================                   |
     |                        A N C O P T                        |
     |                   =====================                   |
     |               Approximate Normal Coordinate               |
     |                Rational Function Optimizer                |
      ----------------------------------------------------------- 

          ...................................................
          :                      SETUP                      :
          :.................................................:
          :   optimization level            normal          :
          :   max. optcycles                   200          :
          :   ANC micro-cycles                  20          :
          :   degrees of freedom                78          :
          :.................................................:
          :   RF solver                   davidson          :
          :   write xtbopt.log                true          :
          :   linear?                        false          :
          :   energy convergence         0.5000000E-05 Eh   :
          :   grad. convergence          0.1000000E-02 Eh/α :
          :   maximium RF displ.         1.0000000          :
          :   Hlow (freq-cutoff)         0.1000000E-01      :
          :   Hmax (freq-cutoff)         5.0000000          :
          :   S6 in model hess.         20.0000000          :
          ...................................................

generating ANC from model Hessian ...
Using Lindh-Hessian (1995)
 Shifting diagonal of input Hessian by   9.403991003449488E-003
 Lowest  eigenvalues of input Hessian
    0.000000    0.000000    0.000000    0.000000    0.000000    0.000000
    0.010000    0.010713    0.011901    0.012613    0.013741    0.015020
    0.015162    0.018027    0.020373    0.021441    0.025390    0.026069
 Highest eigenvalues
    1.521184    1.663104    1.772777    1.871203    2.008527    2.100682
 

........................................................................
.............................. CYCLE    1 ..............................
........................................................................
   1    -45.3003069 -0.453003E+02  0.752E-05    4.12       0.0  T
   2    -45.3003069 -0.145519E-10  0.509E-05    4.12     371.6  T
   3    -45.3003069 -0.787992E-11  0.212E-05    4.12     889.9  T
     SCC iter.                  ...        0 min,  0.004 sec
     gradient                   ...        0 min,  0.007 sec
 * total energy  :   -44.8037204 Eh     change       -0.2139586E-09 Eh
   gradient norm :     0.0333591 Eh/α   predicted     0.0000000E+00 (-100.00%)
   displ. norm   :     0.1495534 α      lambda       -0.2249812E-02
   maximum displ.:     0.0697783 α      in ANC's #17, #7, #10, ...

........................................................................
.............................. CYCLE    2 ..............................
........................................................................
   1    -45.3131380 -0.453131E+02  0.103E-01    4.17       0.0  T
   2    -45.3131422 -0.424438E-05  0.621E-02    4.17       1.0  T
   3    -45.3131398  0.234685E-05  0.125E-02    4.17       1.5  T
   4    -45.3131437 -0.384759E-05  0.357E-03    4.17       5.3  T
   5    -45.3131438 -0.578520E-07  0.181E-03    4.17      10.4  T
   6    -45.3131438 -0.150190E-07  0.853E-04    4.17      22.2  T
   7    -45.3131438 -0.359788E-08  0.440E-04    4.17      43.0  T
     SCC iter.                  ...        0 min,  0.007 sec
     gradient                   ...        0 min,  0.007 sec
 * total energy  :   -44.8052032 Eh     change       -0.1482735E-02 Eh
   gradient norm :     0.0144646 Eh/α   predicted    -0.1150108E-02 ( -22.43%)
   displ. norm   :     0.1397568 α      lambda       -0.5855170E-03
   maximum displ.:     0.0752747 α      in ANC's #7, #3, #10, ...

........................................................................
.............................. CYCLE    3 ..............................
........................................................................
   1    -45.3178629 -0.453179E+02  0.541E-02    4.18       0.0  T
   2    -45.3178647 -0.181876E-05  0.327E-02    4.18       1.0  T
   3    -45.3178645  0.146500E-06  0.641E-03    4.18       2.9  T
   4    -45.3178652 -0.664846E-06  0.239E-03    4.18       7.9  T
   5    -45.3178652 -0.401677E-07  0.117E-03    4.18      16.1  T
   6    -45.3178652 -0.641543E-08  0.616E-04    4.18      30.7  T
   7    -45.3178652 -0.150271E-08  0.299E-04    4.18      63.2  T
     SCC iter.                  ...        0 min,  0.008 sec
     gradient                   ...        0 min,  0.011 sec
 * total energy  :   -44.8055566 Eh     change       -0.3534862E-03 Eh
   gradient norm :     0.0055965 Eh/α   predicted    -0.2985455E-03 ( -15.54%)
   displ. norm   :     0.0961222 α      lambda       -0.1269788E-03
   maximum displ.:     0.0553501 α      in ANC's #3, #7, #6, ...

........................................................................
.............................. CYCLE    4 ..............................
........................................................................
   1    -45.3176982 -0.453177E+02  0.312E-02    4.17       0.0  T
   2    -45.3176986 -0.425968E-06  0.190E-02    4.17       1.0  T
   3    -45.3176986  0.357448E-07  0.316E-03    4.17       6.0  T
   4    -45.3176987 -0.136802E-06  0.130E-03    4.17      14.5  T
   5    -45.3176988 -0.150108E-07  0.559E-04    4.17      33.8  T
   6    -45.3176988 -0.881720E-09  0.279E-04    4.17      67.8  T
     SCC iter.                  ...        0 min,  0.006 sec
     gradient                   ...        0 min,  0.011 sec
 * total energy  :   -44.8056509 Eh     change       -0.9423025E-04 Eh
   gradient norm :     0.0037129 Eh/α   predicted    -0.6407716E-04 ( -32.00%)
   displ. norm   :     0.1404789 α      lambda       -0.1130841E-03
   maximum displ.:     0.0945405 α      in ANC's #3, #7, #2, ...

........................................................................
.............................. CYCLE    5 ..............................
........................................................................
   1    -45.3167970 -0.453168E+02  0.464E-02    4.16       0.0  T
   2    -45.3167978 -0.830837E-06  0.282E-02    4.17       1.0  T
   3    -45.3167972  0.595264E-06  0.675E-03    4.17       2.8  T
   4    -45.3167980 -0.859153E-06  0.160E-03    4.17      11.8  T
   5    -45.3167981 -0.149892E-07  0.715E-04    4.17      26.4  T
   6    -45.3167981 -0.163186E-08  0.370E-04    4.17      51.1  T
     SCC iter.                  ...        0 min,  0.008 sec
     gradient                   ...        0 min,  0.009 sec
 * total energy  :   -44.8057276 Eh     change       -0.7675139E-04 Eh
   gradient norm :     0.0033172 Eh/α   predicted    -0.5774727E-04 ( -24.76%)
   displ. norm   :     0.1085104 α      lambda       -0.5299233E-04
   maximum displ.:     0.0779407 α      in ANC's #3, #2, #1, ...

........................................................................
.............................. CYCLE    6 ..............................
........................................................................
   1    -45.3164929 -0.453165E+02  0.349E-02    4.16       0.0  T
   2    -45.3164934 -0.465989E-06  0.212E-02    4.16       1.0  T
   3    -45.3164929  0.461823E-06  0.583E-03    4.16       3.2  T
   4    -45.3164936 -0.638210E-06  0.112E-03    4.16      16.8  T
   5    -45.3164936 -0.563328E-08  0.553E-04    4.16      34.2  T
   6    -45.3164936 -0.142535E-08  0.288E-04    4.16      65.6  T
     SCC iter.                  ...        0 min,  0.006 sec
     gradient                   ...        0 min,  0.007 sec
 * total energy  :   -44.8057716 Eh     change       -0.4399099E-04 Eh
   gradient norm :     0.0031746 Eh/α   predicted    -0.2681928E-04 ( -39.03%)
   displ. norm   :     0.1366196 α      lambda       -0.6536538E-04
   maximum displ.:     0.0958463 α      in ANC's #3, #2, #1, ...

........................................................................
.............................. CYCLE    7 ..............................
........................................................................
   1    -45.3166288 -0.453166E+02  0.427E-02    4.16       0.0  T
   2    -45.3166295 -0.681394E-06  0.258E-02    4.16       1.0  T
   3    -45.3166288  0.689093E-06  0.723E-03    4.16       2.6  T
   4    -45.3166298 -0.964361E-06  0.136E-03    4.16      13.9  T
   5    -45.3166298 -0.755116E-08  0.728E-04    4.16      26.0  T
   6    -45.3166298 -0.261649E-08  0.378E-04    4.16      49.9  T
     SCC iter.                  ...        0 min,  0.006 sec
     gradient                   ...        0 min,  0.008 sec
 * total energy  :   -44.8058277 Eh     change       -0.5607215E-04 Eh
   gradient norm :     0.0025256 Eh/α   predicted    -0.3329364E-04 ( -40.62%)
   displ. norm   :     0.1918285 α      lambda       -0.7916176E-04
   maximum displ.:     0.1312713 α      in ANC's #3, #2, #1, ...

........................................................................
.............................. CYCLE    8 ..............................
........................................................................
   1    -45.3169766 -0.453170E+02  0.581E-02    4.15       0.0  T
   2    -45.3169776 -0.106238E-05  0.351E-02    4.15       1.0  T
   3    -45.3169766  0.100125E-05  0.876E-03    4.15       2.2  T
   4    -45.3169780 -0.141759E-05  0.175E-03    4.15      10.8  T
   5    -45.3169781 -0.128127E-07  0.923E-04    4.15      20.5  T
   6    -45.3169781 -0.386626E-08  0.478E-04    4.15      39.5  T
     SCC iter.                  ...        0 min,  0.007 sec
     gradient                   ...        0 min,  0.008 sec
 * total energy  :   -44.8058945 Eh     change       -0.6680024E-04 Eh
   gradient norm :     0.0024247 Eh/α   predicted    -0.4104258E-04 ( -38.56%)
   displ. norm   :     0.2475576 α      lambda       -0.8016275E-04
   maximum displ.:     0.1653133 α      in ANC's #3, #2, #1, ...

........................................................................
.............................. CYCLE    9 ..............................
........................................................................
   1    -45.3172443 -0.453172E+02  0.728E-02    4.14       0.0  T
   2    -45.3172457 -0.138690E-05  0.439E-02    4.15       1.0  T
   3    -45.3172445  0.120444E-05  0.967E-03    4.15       2.0  T
   4    -45.3172462 -0.172592E-05  0.204E-03    4.15       9.3  T
   5    -45.3172463 -0.183060E-07  0.102E-03    4.15      18.5  T
   6    -45.3172463 -0.425567E-08  0.527E-04    4.15      35.9  T
   7    -45.3172463 -0.170315E-08  0.164E-04    4.15     115.1  T
     SCC iter.                  ...        0 min,  0.006 sec
     gradient                   ...        0 min,  0.007 sec
 * total energy  :   -44.8059580 Eh     change       -0.6350643E-04 Eh
   gradient norm :     0.0031548 Eh/α   predicted    -0.4254154E-04 ( -33.01%)
   displ. norm   :     0.2620570 α      lambda       -0.6254614E-04
   maximum displ.:     0.1728369 α      in ANC's #3, #2, #1, ...

........................................................................
.............................. CYCLE   10 ..............................
........................................................................
   1    -45.3174220 -0.453174E+02  0.747E-02    4.14       0.0  T
   2    -45.3174233 -0.126520E-05  0.450E-02    4.14       1.0  T
   3    -45.3174222  0.105630E-05  0.913E-03    4.14       2.1  T
   4    -45.3174238 -0.152724E-05  0.198E-03    4.14       9.5  T
   5    -45.3174238 -0.174499E-07  0.942E-04    4.14      20.1  T
   6    -45.3174238 -0.319339E-08  0.476E-04    4.14      39.7  T
     SCC iter.                  ...        0 min,  0.006 sec
     gradient                   ...        0 min,  0.007 sec
 * total energy  :   -44.8059991 Eh     change       -0.4112623E-04 Eh
   gradient norm :     0.0034345 Eh/α   predicted    -0.3342474E-04 ( -18.73%)
   displ. norm   :     0.1251201 α      lambda       -0.2856538E-04
   maximum displ.:     0.0805482 α      in ANC's #3, #2, #1, ...

........................................................................
.............................. CYCLE   11 ..............................
........................................................................
   1    -45.3180585 -0.453181E+02  0.334E-02    4.14       0.0  T
   2    -45.3180587 -0.260956E-06  0.201E-02    4.14       1.0  T
   3    -45.3180586  0.139333E-06  0.362E-03    4.14       5.2  T
   4    -45.3180588 -0.222861E-06  0.939E-04    4.14      20.1  T
   5    -45.3180588 -0.507455E-08  0.399E-04    4.14      47.4  T
     SCC iter.                  ...        0 min,  0.005 sec
     gradient                   ...        0 min,  0.007 sec
 * total energy  :   -44.8060192 Eh     change       -0.2011520E-04 Eh
   gradient norm :     0.0021286 Eh/α   predicted    -0.1450637E-04 ( -27.88%)
   displ. norm   :     0.1017591 α      lambda       -0.1442457E-04
   maximum displ.:     0.0667299 α      in ANC's #3, #2, #1, ...

........................................................................
.............................. CYCLE   12 ..............................
........................................................................
   1    -45.3181388 -0.453181E+02  0.272E-02    4.14       0.0  T
   2    -45.3181390 -0.188141E-06  0.164E-02    4.14       1.2  T
   3    -45.3181389  0.108388E-06  0.312E-03    4.14       6.1  T
   4    -45.3181391 -0.166382E-06  0.799E-04    4.14      23.6  T
   5    -45.3181391 -0.385284E-08  0.331E-04    4.14      57.0  T
     SCC iter.                  ...        0 min,  0.005 sec
     gradient                   ...        0 min,  0.011 sec
 * total energy  :   -44.8060288 Eh     change       -0.9569089E-05 Eh
   gradient norm :     0.0007646 Eh/α   predicted    -0.7290051E-05 ( -23.82%)
   displ. norm   :     0.0718521 α      lambda       -0.4357105E-05
   maximum displ.:     0.0440878 α      in ANC's #3, #2, #1, ...

........................................................................
.............................. CYCLE   13 ..............................
........................................................................
   1    -45.3181362 -0.453181E+02  0.184E-02    4.14       0.0  T
   2    -45.3181364 -0.110360E-06  0.111E-02    4.14       1.7  T
   3    -45.3181363  0.634547E-07  0.241E-03    4.14       7.8  T
   4    -45.3181364 -0.965983E-07  0.605E-04    4.14      31.2  T
   5    -45.3181364 -0.225590E-08  0.261E-04    4.14      72.5  T
     SCC iter.                  ...        0 min,  0.007 sec
     gradient                   ...        0 min,  0.008 sec
 * total energy  :   -44.8060325 Eh     change       -0.3731018E-05 Eh
   gradient norm :     0.0008351 Eh/α   predicted    -0.2197140E-05 ( -41.11%)
   displ. norm   :     0.0197880 α      lambda       -0.1850636E-05
   maximum displ.:     0.0133682 α      in ANC's #5, #2, #6, ...

   *** GEOMETRY OPTIMIZATION CONVERGED AFTER 13 ITERATIONS ***

------------------------------------------------------------------------
 total energy gain   :        -0.0023121 Eh       -1.4509 kcal/mol
 total RMSD          :         0.2966173 a0        0.1570 Å
 total power (kW/mol):        -0.4669580 (step)  -23.6345 (real)
------------------------------------------------------------------------

 ANCopt (total)                0 d,  0 h,  0 min,  0.257 sec
 optimizer setup                ...        0 min,  0.000 sec (  0.074%)
 model hessian                  ...        0 min,  0.006 sec (  2.520%)
 ANC generation                 ...        0 min,  0.001 sec (  0.273%)
 coordinate transformation      ...        0 min,  0.000 sec (  0.062%)
 single point calculation       ...        0 min,  0.245 sec ( 95.268%)
 optimization log               ...        0 min,  0.003 sec (  1.129%)
 hessian update                 ...        0 min,  0.000 sec (  0.055%)
 rational function              ...        0 min,  0.001 sec (  0.328%)

================
 final structure:
================
28
 xtb: 6.4.1 (afa7bdf)
O         0.30055318057410   -0.89115545302510   -0.75830160424788
O         1.80252970492763    0.24044961074954    1.34555806098659
O         4.27841985764315    0.34557804696520   -0.06698399301361
O        -0.38252646421869    1.61572268025607   -0.33642922474654
C         2.27631182297063   -0.86547708371826    0.60804434762123
C         1.11015066857225   -1.71323960005368    0.07245243216091
C         3.16928489165151   -0.37839261491342   -0.54306163496785
C        -0.99260744041519   -0.64964335992456   -0.33983161809980
C        -1.37894383511574    0.69164388156180   -0.17125726065965
C        -1.90833983094895   -1.66663558079397   -0.13374709642313
C        -2.69283426260140    0.98009702394482    0.16528520530194
C        -3.21495170444195   -1.36636234158408    0.21736539159945
C        -3.60305026831953   -0.04816736003943    0.35690759582949
C        -0.73100757208415    2.98826494521225   -0.30239397353565
H         2.86995078209727   -1.45826739264825    1.31062835697330
H         1.49710567476053   -2.54101269259479   -0.52830790847696
H         0.52693756290248   -2.10574155914728    0.91025271898431
H         2.56345732687927    0.24229186482256   -1.21796616297872
H         3.56791323233478   -1.22635441765335   -1.10093677385255
H        -1.59386569211362   -2.69111195565694   -0.26166675398434
H        -3.01284617046892    2.00068754711892    0.29566682459022
H         1.17969853061095    0.73021430098106    0.77873987860707
H        -3.92350570885603   -2.16400922823732    0.37246077467973
H        -4.62024528638174    0.19228321073298    0.62259172803731
H         3.96022192571334    0.96729587258106    0.60602141535043
H         0.18595351363246    3.52418725396971   -0.53511325872720
H        -1.08629195894433    3.27931855692288    0.68921905149645
H        -1.49037848036058    3.21786484417103   -1.05293551850458
 
 Bond Distances (Angstroems)
 ---------------------------
O1-C6=1.4218         O1-C8=1.3805         O2-C5=1.4112         O2-H22=0.9742        O3-C7=1.4075         O3-H25=0.9699        
O4-C9=1.3690         O4-C14=1.4165        C5-O2=1.4112         C5-C6=1.5380         C5-C7=1.5361         C5-H15=1.0943        
C6-O1=1.4218         C6-C5=1.5380         C6-H16=1.0936        C6-H17=1.0937        C7-O3=1.4075         C7-C5=1.5361         
C7-H18=1.0990        C7-H19=1.0905        C8-O1=1.3805         C8-C9=1.4060         C8-C10=1.3839        C9-O4=1.3690         
C9-C8=1.4060         C9-C11=1.3866        C10-C8=1.3839        C10-C12=1.3859       C10-H20=1.0793       C11-C9=1.3866        
C11-C13=1.3866       C11-H21=1.0775       C12-C10=1.3859       C12-C13=1.3812       C12-H23=1.0781       C13-C11=1.3866       
C13-C12=1.3812       C13-H24=1.0785       C14-O4=1.4165        C14-H26=1.0873       C14-H27=1.0928       C14-H28=1.0921       
H15-C5=1.0943        H16-C6=1.0936        H17-C6=1.0937        H18-C7=1.0990        H19-C7=1.0905        H20-C10=1.0793       
H21-C11=1.0775       H22-O2=0.9742        H23-C12=1.0781       H24-C13=1.0785       H25-O3=0.9699        H26-C14=1.0873       
H27-C14=1.0928       H28-C14=1.0921       
 C  H  Rav=1.0880 sigma=0.0073  Rmin=1.0775  Rmax=1.0990    12
 C  C  Rav=1.4255 sigma=0.0648  Rmin=1.3812  Rmax=1.5380     8
 O  H  Rav=0.9721 sigma=0.0021  Rmin=0.9699  Rmax=0.9742     2
 O  C  Rav=1.4011 sigma=0.0194  Rmin=1.3690  Rmax=1.4218     6
 
 selected bond angles (degree)
 --------------------
C8-O1-C6=117.22                H22-O2-C5=107.73               H25-O3-C7=107.81               C14-O4-C9=118.17               
C6-C5-O2=111.06                C7-C5-O2=109.77                C7-C5-C6=110.77                H15-C5-O2=105.73               
H15-C5-C6=109.65               H15-C5-C7=109.73               C5-C6-O1=108.45                H16-C6-O1=108.55               
H16-C6-C5=109.89               H17-C6-O1=110.58               H17-C6-C5=109.60               H17-C6-H16=109.75              
C5-C7-O3=111.58                H18-C7-O3=110.59               H18-C7-C5=108.59               H19-C7-O3=106.56               
H19-C7-C5=110.44               H19-C7-H18=109.06              C9-C8-O1=117.43                C10-C8-O1=122.44               
C10-C8-C9=120.09               C8-C9-O4=115.44                C11-C9-O4=125.35               C11-C9-C8=119.20               
C12-C10-C8=120.16              H20-C10-C8=119.15              H20-C10-C12=120.69             
 
 selected dihedral angles (degree)
 ---------------------------------
C6-C5-O2-H22=305.78           C7-C5-O2-H22= 68.62           H15-C5-O2-H22=186.91          C5-C6-O1-C8=244.47            
H16-C6-O1-C8=125.11           H17-C6-O1-C8=  4.67           O1-C6-C5-O2= 59.24            O1-C6-C5-C7=296.98            
O1-C6-C5-H15=175.73           H16-C6-C5-O2=177.76           H16-C6-C5-C7= 55.50           H16-C6-C5-H15=294.25          
H17-C6-C5-O2=298.44           H17-C6-C5-C7=176.18           H17-C6-C5-H15= 54.93          C5-C7-O3-H25=314.44           
H18-C7-O3-H25= 75.42          H19-C7-O3-H25=193.82          O3-C7-C5-O2= 59.84            O3-C7-C5-C6=182.85            
O3-C7-C5-H15=304.05           H18-C7-C5-O2=297.70           H18-C7-C5-C6= 60.71           H18-C7-C5-H15=181.91          
H19-C7-C5-O2=178.16           H19-C7-C5-C6=301.17           H19-C7-C5-H15= 62.37          C9-C8-O1-C6=122.78            
C10-C8-O1-C6=300.47           C8-C9-O4-C14=174.27           C11-C9-O4-C14=352.98          O4-C9-C8-O1=354.73            
O4-C9-C8-C10=176.99           C11-C9-C8-O1=175.93           C11-C9-C8-C10=358.19          C12-C10-C8-O1=183.46          
C12-C10-C8-C9=  1.09          H20-C10-C8-O1=  2.74          H20-C10-C8-C9=180.36          
           -------------------------------------------------
          |                Final Singlepoint                |
           -------------------------------------------------

          ...................................................
          :                      SETUP                      :
          :.................................................:
          :  # basis functions                  70          :
          :  # atomic orbitals                  70          :
          :  # shells                           42          :
          :  # electrons                        78          :
          :  max. iterations                   250          :
          :  Hamiltonian                  GFN2-xTB          :
          :  restarted?                      false          :
          :  GBSA solvation                   true          :
          :  PC potential                    false          :
          :  electronic temp.          300.0000000     K    :
          :  accuracy                    1.0000000          :
          :  -> integral cutoff          0.2500000E+02      :
          :  -> integral neglect         0.1000000E-07      :
          :  -> SCF convergence          0.1000000E-05 Eh   :
          :  -> wf. convergence          0.1000000E-03 e    :
          :  Broyden damping             0.4000000          :
          ...................................................

 iter      E             dE          RMSdq      gap      omega  full diag
   1    -45.3181364 -0.453181E+02  0.122E-04    4.14       0.0  T
   2    -45.3181364 -0.777192E-10  0.807E-05    4.14     234.2  T
   3    -45.3181364 -0.225100E-10  0.526E-05    4.14     359.6  T

   *** convergence criteria satisfied after 3 iterations ***

         #    Occupation            Energy/Eh            Energy/eV
      -------------------------------------------------------------
         1        2.0000           -0.7252585             -19.7353
       ...           ...                  ...                  ...
        33        2.0000           -0.4482578             -12.1977
        34        2.0000           -0.4379494             -11.9172
        35        2.0000           -0.4312634             -11.7353
        36        2.0000           -0.4222316             -11.4895
        37        2.0000           -0.4071820             -11.0800
        38        2.0000           -0.3990200             -10.8579
        39        2.0000           -0.3819425             -10.3932 (HOMO)
        40                         -0.2299590              -6.2575 (LUMO)
        41                         -0.2227328              -6.0609
        42                         -0.0994283              -2.7056
        43                         -0.0048255              -0.1313
        44                          0.0176527               0.4804
       ...                                ...                  ...
        70                          0.6629877              18.0408
      -------------------------------------------------------------
                  HL-Gap            0.1519835 Eh            4.1357 eV
             Fermi-level           -0.3059508 Eh           -8.3253 eV

 SCC (total)                   0 d,  0 h,  0 min,  0.016 sec
 SCC setup                      ...        0 min,  0.001 sec (  3.433%)
 Dispersion                     ...        0 min,  0.000 sec (  0.542%)
 classical contributions        ...        0 min,  0.000 sec (  0.175%)
 integral evaluation            ...        0 min,  0.003 sec ( 18.571%)
 iterations                     ...        0 min,  0.003 sec ( 20.745%)
 molecular gradient             ...        0 min,  0.009 sec ( 54.461%)
 printout                       ...        0 min,  0.000 sec (  1.925%)

         :::::::::::::::::::::::::::::::::::::::::::::::::::::
         ::                     SUMMARY                     ::
         :::::::::::::::::::::::::::::::::::::::::::::::::::::
         :: total energy             -44.806032532128 Eh    ::
         :: total w/o Gsasa/hb       -44.801518610945 Eh    ::
         :: gradient norm              0.000834556908 Eh/a0 ::
         :: HOMO-LUMO gap              4.135680554923 eV    ::
         ::.................................................::
         :: SCC energy               -45.318136394403 Eh    ::
         :: -> isotropic ES            0.095825124876 Eh    ::
         :: -> anisotropic ES          0.000791883557 Eh    ::
         :: -> anisotropic XC          0.006108504141 Eh    ::
         :: -> dispersion             -0.023686629041 Eh    ::
         :: -> Gsolv                  -0.014955416328 Eh    ::
         ::    -> Gelec               -0.010441495145 Eh    ::
         ::    -> Gsasa                0.001666694028 Eh    ::
         ::    -> Ghb                 -0.007261374909 Eh    ::
         ::    -> Gshift               0.001080759698 Eh    ::
         :: repulsion energy           0.511921444897 Eh    ::
         :: add. restraining           0.000000000000 Eh    ::
         :: total charge              -0.000000000000 e     ::
         :::::::::::::::::::::::::::::::::::::::::::::::::::::

           ------------------------------------------------- 
          |                Numerical Hessian                |
           ------------------------------------------------- 
step length          :   0.00500
SCC accuracy         :   0.30000
Hessian scale factor :   1.00000
frozen atoms in %    :   0.00000    0
RMS gradient         :   0.00083
estimated CPU  time      0.04 min
estimated wall time      0.04 min

writing file <hessian>.

 projected vibrational frequencies (cm⁻¹)
eigval :       -0.00    -0.00    -0.00     0.00     0.00     0.00
eigval :       15.74    44.17    65.04    92.06   101.73   127.63
eigval :      165.97   201.11   208.34   240.08   256.85   308.17
eigval :      320.61   358.62   397.99   437.90   475.30   478.49
eigval :      521.09   541.09   556.11   563.04   641.05   681.05
eigval :      775.77   782.71   807.50   861.44   871.74   902.43
eigval :      918.15   927.13   941.51  1019.12  1033.46  1068.25
eigval :     1080.59  1090.84  1103.14  1111.66  1116.42  1141.19
eigval :     1143.64  1173.64  1186.49  1204.22  1222.27  1245.37
eigval :     1248.53  1255.24  1296.03  1309.54  1329.27  1331.99
eigval :     1340.65  1391.64  1432.53  1439.76  1457.57  1462.01
eigval :     1465.60  1472.28  1581.58  1585.29  2887.15  2944.88
eigval :     2950.36  2954.43  2959.72  2969.13  2995.27  3040.20
eigval :     3091.66  3095.80  3107.07  3117.31  3367.19  3453.85
           -------------------------------------------------
          |                Property Printout                |
           -------------------------------------------------

    * Orbital Energies and Occupations

         #    Occupation            Energy/Eh            Energy/eV
      -------------------------------------------------------------
         1        2.0000           -0.7252587             -19.7353
       ...           ...                  ...                  ...
        27        2.0000           -0.4867725             -13.2458
        28        2.0000           -0.4735745             -12.8866
        29        2.0000           -0.4705439             -12.8042
        30        2.0000           -0.4685014             -12.7486
        31        2.0000           -0.4658043             -12.6752
        32        2.0000           -0.4532120             -12.3325
        33        2.0000           -0.4482579             -12.1977
        34        2.0000           -0.4379494             -11.9172
        35        2.0000           -0.4312636             -11.7353
        36        2.0000           -0.4222318             -11.4895
        37        2.0000           -0.4071823             -11.0800
        38        2.0000           -0.3990201             -10.8579
        39        2.0000           -0.3819426             -10.3932 (HOMO)
        40                         -0.2299590              -6.2575 (LUMO)
        41                         -0.2227328              -6.0609
        42                         -0.0994283              -2.7056
        43                         -0.0048258              -0.1313
        44                          0.0176525               0.4803
        45                          0.0352221               0.9584
        46                          0.0512712               1.3952
        47                          0.0938747               2.5545
        48                          0.1084089               2.9500
        49                          0.1156575               3.1472
        50                          0.1210534               3.2940
       ...                                ...                  ...
        70                          0.6629877              18.0408
      -------------------------------------------------------------
                  HL-Gap            0.1519836 Eh            4.1357 eV
             Fermi-level           -0.3059508 Eh           -8.3253 eV

     #   Z          covCN         q      C6AA      α(0)
     1   8 O        1.703    -0.327    19.468     5.957
     2   8 O        1.654    -0.486    22.590     6.416
     3   8 O        1.655    -0.507    23.047     6.481
     4   8 O        1.704    -0.300    18.992     5.884
     5   6 C        3.723     0.093    19.141     6.248
     6   6 C        3.692     0.061    19.735     6.357
     7   6 C        3.675     0.066    19.690     6.358
     8   6 C        2.864     0.115    25.466     8.272
     9   6 C        2.862     0.121    25.334     8.250
    10   6 C        2.918    -0.062    29.539     8.913
    11   6 C        2.917    -0.071    29.782     8.949
    12   6 C        2.919    -0.047    29.179     8.858
    13   6 C        2.920    -0.043    29.079     8.843
    14   6 C        3.642     0.019    20.613     6.528
    15   1 H        0.924     0.058     2.217     2.328
    16   1 H        0.924     0.055     2.259     2.350
    17   1 H        0.924     0.054     2.276     2.359
    18   1 H        0.923     0.040     2.455     2.450
    19   1 H        0.924     0.051     2.311     2.377
    20   1 H        0.926     0.054     2.273     2.358
    21   1 H        0.926     0.059     2.205     2.322
    22   1 H        0.804     0.330     0.636     1.253
    23   1 H        0.926     0.055     2.260     2.351
    24   1 H        0.926     0.057     2.240     2.340
    25   1 H        0.804     0.357     0.571     1.187
    26   1 H        0.925     0.082     1.954     2.186
    27   1 H        0.924     0.059     2.211     2.325
    28   1 H        0.924     0.058     2.223     2.332

 Mol. C6AA /au·bohr⁶  :       7594.492146
 Mol. C8AA /au·bohr⁸  :     172692.659672
 Mol. α(0) /au        :        132.832494


Wiberg/Mayer (AO) data.
largest (>0.10) Wiberg bond orders for each atom

 ---------------------------------------------------------------------------
     #   Z sym  total        # sym  WBO       # sym  WBO       # sym  WBO
 ---------------------------------------------------------------------------
     1   8 O    2.130 --     8 C    1.009     6 C    0.957
     2   8 O    1.944 --     5 C    0.997    22 H    0.858
     3   8 O    1.916 --     7 C    1.003    25 H    0.854
     4   8 O    2.212 --     9 C    1.050    14 C    0.966
     5   6 C    3.956 --     2 O    0.997     7 C    0.976     6 C    0.975
                            15 H    0.960
     6   6 C    3.943 --     5 C    0.975    17 H    0.970    16 H    0.969
                             1 O    0.957
     7   6 C    3.957 --     3 O    1.003     5 C    0.976    19 H    0.972
                            18 H    0.966
     8   6 C    3.931 --    10 C    1.417     9 C    1.299     1 O    1.009
                            13 C    0.101
     9   6 C    3.935 --    11 C    1.393     8 C    1.299     4 O    1.050
    10   6 C    3.988 --    12 C    1.420     8 C    1.417    20 H    0.966
                            11 C    0.100
    11   6 C    3.985 --    13 C    1.425     9 C    1.393    21 H    0.963
                            10 C    0.100
    12   6 C    3.990 --    13 C    1.449    10 C    1.420    23 H    0.969
    13   6 C    3.989 --    12 C    1.449    11 C    1.425    24 H    0.969
                             8 C    0.101
    14   6 C    3.927 --    28 H    0.977    26 H    0.977    27 H    0.976
                             4 O    0.966
    15   1 H    0.996 --     5 C    0.960
    16   1 H    0.997 --     6 C    0.969
    17   1 H    0.997 --     6 C    0.970
    18   1 H    0.998 --     7 C    0.966
    19   1 H    0.997 --     7 C    0.972
    20   1 H    0.996 --    10 C    0.966
    21   1 H    0.996 --    11 C    0.963
    22   1 H    0.891 --     2 O    0.858
    23   1 H    0.997 --    12 C    0.969
    24   1 H    0.997 --    13 C    0.969
    25   1 H    0.872 --     3 O    0.854
    26   1 H    0.993 --    14 C    0.977
    27   1 H    0.996 --    14 C    0.976
    28   1 H    0.997 --    14 C    0.977
 ---------------------------------------------------------------------------

Topologies differ in total number of bonds
Writing topology from bond orders to xtbtopo.mol

molecular dipole:
                 x           y           z       tot (Debye)
 q only:       -1.371       0.384       0.227
   full:       -1.675       0.384       0.188       4.394
molecular quadrupole (traceless):
                xx          xy          yy          xz          yz          zz
 q only:       -8.076      -3.087      14.206       0.029      -0.708      -6.130
  q+dip:      -11.518      -4.355      18.009      -1.047      -0.888      -6.491
   full:      -12.130      -4.336      17.349      -0.032      -0.755      -5.219

           -------------------------------------------------
          |                Geometry Summary                 |
           -------------------------------------------------

      molecular mass/u    :      198.2161492
   center of mass at/Å    :        0.0047006      -0.0070867       0.0151022
  moments of inertia/u·Å² :        0.4166000E+03   0.1161064E+04   0.1453153E+04
rotational constants/cm⁻¹ :        0.4046480E-01   0.1451912E-01   0.1160072E-01

 * 28 selected distances

     #   Z          #   Z                                           value/Å
     2   8 O        5   6 C                                       1.4111945
     1   8 O        6   6 C                                       1.4217675
     5   6 C        6   6 C                                       1.5380155 (max)
     3   8 O        7   6 C                                       1.4074672
     5   6 C        7   6 C                                       1.5361306
     1   8 O        8   6 C                                       1.3804744
     4   8 O        9   6 C                                       1.3689598
     8   6 C        9   6 C                                       1.4059604
     8   6 C       10   6 C                                       1.3839472
     9   6 C       11   6 C                                       1.3866413
    10   6 C       12   6 C                                       1.3858855
    11   6 C       13   6 C                                       1.3865569
    12   6 C       13   6 C                                       1.3812062
     4   8 O       14   6 C                                       1.4164991
     5   6 C       15   1 H                                       1.0942723
     6   6 C       16   1 H                                       1.0935518
     6   6 C       17   1 H                                       1.0936657
     7   6 C       18   1 H                                       1.0989870
     7   6 C       19   1 H                                       1.0904900
    10   6 C       20   1 H                                       1.0792633
    11   6 C       21   1 H                                       1.0775027
     2   8 O       22   1 H                                       0.9742027
    12   6 C       23   1 H                                       1.0781205
    13   6 C       24   1 H                                       1.0784666
     3   8 O       25   1 H                                       0.9699068 (min)
    14   6 C       26   1 H                                       1.0872850
    14   6 C       27   1 H                                       1.0928109
    14   6 C       28   1 H                                       1.0920956

 * 4 distinct bonds (by element types)

   Z      Z             #   av. dist./Å        max./Å        min./Å
   1 H    6 C          12     1.0880426     1.0989870     1.0775027
   6 C    6 C           8     1.4255429     1.5380155     1.3812062
   1 H    8 O           2     0.9720548     0.9742027     0.9699068
   6 C    8 O           6     1.4010604     1.4217675     1.3689598

           -------------------------------------------------
          |               Frequency Printout                |
           -------------------------------------------------
 projected vibrational frequencies (cm⁻¹)
eigval :       -0.00    -0.00    -0.00     0.00     0.00     0.00
eigval :       15.74    44.17    65.04    92.06   101.73   127.63
eigval :      165.97   201.11   208.34   240.08   256.85   308.17
eigval :      320.61   358.62   397.99   437.90   475.30   478.49
eigval :      521.09   541.09   556.11   563.04   641.05   681.05
eigval :      775.77   782.71   807.50   861.44   871.74   902.43
eigval :      918.15   927.13   941.51  1019.12  1033.46  1068.25
eigval :     1080.59  1090.84  1103.14  1111.66  1116.42  1141.19
eigval :     1143.64  1173.64  1186.49  1204.22  1222.27  1245.37
eigval :     1248.53  1255.24  1296.03  1309.54  1329.27  1331.99
eigval :     1340.65  1391.64  1432.53  1439.76  1457.57  1462.01
eigval :     1465.60  1472.28  1581.58  1585.29  2887.15  2944.88
eigval :     2950.36  2954.43  2959.72  2969.13  2995.27  3040.20
eigval :     3091.66  3095.80  3107.07  3117.31  3367.19  3453.85
 reduced masses (amu)
   1: 12.45   2: 12.15   3: 12.40   4: 12.85   5: 11.66   6: 11.19   7: 13.09   8: 11.79
   9: 12.13  10: 10.61  11: 10.26  12: 11.69  13: 12.50  14:  8.60  15: 11.63  16:  6.41
  17:  9.80  18: 10.87  19: 11.15  20:  7.64  21:  5.90  22: 10.69  23: 10.44  24:  9.41
  25: 10.86  26:  4.38  27: 10.21  28: 11.06  29: 10.89  30: 11.66  31:  7.97  32:  7.43
  33: 11.14  34:  3.50  35:  8.89  36:  4.00  37:  3.15  38:  8.28  39:  7.00  40: 11.16
  41: 11.71  42: 10.25  43: 10.04  44:  6.02  45: 10.22  46:  9.07  47:  3.98  48:  4.53
  49:  3.93  50:  2.52  51:  3.73  52:  4.35  53:  4.44  54:  4.93  55:  4.41  56:  9.53
  57:  2.97  58:  3.32  59: 11.22  60:  3.96  61:  4.04  62:  2.50  63:  6.51  64:  4.86
  65:  1.58  66:  8.05  67:  1.83  68:  3.31  69: 11.56  70: 11.54  71:  1.73  72:  1.92
  73:  1.55  74:  1.88  75:  1.73  76:  1.52  77:  1.70  78:  1.71  79:  1.77  80:  1.81
  81:  1.88  82:  1.88  83:  1.88  84:  1.88
 IR intensities (km·mol⁻¹)
   1:  0.02   2:  0.11   3:  0.45   4:  0.16   5:  0.33   6:  0.28   7:  0.43   8:  2.85
   9:  0.50  10:  8.29  11:  9.86  12:  4.65  13:  7.65  14:  4.39  15:  6.04  16:  3.52
  17:  8.49  18:  7.13  19: 10.83  20: 30.99  21:148.01  22:  0.64  23:  9.93  24:  8.82
  25:  2.89  26:238.07  27:  8.40  28: 39.60  29:  8.27  30:  1.77  31: 75.81  32: 58.11
  33: 24.60  34:  1.59  35: 30.69  36:  0.57  37:  0.12  38: 34.22  39: 30.57  40: 39.12
  41: 33.72  42:153.62  43: 39.23  44: 10.69  45:247.31  46: 74.53  47: 10.03  48: 18.63
  49: 91.12  50: 30.46  51: 16.42  52: 74.51  53: 16.77  54: 77.66  55: 27.54  56:348.16
  57: 77.02  58: 12.67  59: 28.82  60: 78.00  61: 74.08  62:  0.81  63: 11.91  64: 14.85
  65:  9.73  66:233.89  67:  2.56  68: 20.91  69:  5.38  70: 61.06  71: 64.75  72: 50.80
  73: 18.09  74: 39.11  75: 92.05  76: 38.69  77: 51.68  78: 14.44  79:  9.48  80: 42.22
  81: 80.44  82: 34.80  83:200.40  84: 93.16
 Raman intensities (amu)
   1:  0.00   2:  0.00   3:  0.00   4:  0.00   5:  0.00   6:  0.00   7:  0.00   8:  0.00
   9:  0.00  10:  0.00  11:  0.00  12:  0.00  13:  0.00  14:  0.00  15:  0.00  16:  0.00
  17:  0.00  18:  0.00  19:  0.00  20:  0.00  21:  0.00  22:  0.00  23:  0.00  24:  0.00
  25:  0.00  26:  0.00  27:  0.00  28:  0.00  29:  0.00  30:  0.00  31:  0.00  32:  0.00
  33:  0.00  34:  0.00  35:  0.00  36:  0.00  37:  0.00  38:  0.00  39:  0.00  40:  0.00
  41:  0.00  42:  0.00  43:  0.00  44:  0.00  45:  0.00  46:  0.00  47:  0.00  48:  0.00
  49:  0.00  50:  0.00  51:  0.00  52:  0.00  53:  0.00  54:  0.00  55:  0.00  56:  0.00
  57:  0.00  58:  0.00  59:  0.00  60:  0.00  61:  0.00  62:  0.00  63:  0.00  64:  0.00
  65:  0.00  66:  0.00  67:  0.00  68:  0.00  69:  0.00  70:  0.00  71:  0.00  72:  0.00
  73:  0.00  74:  0.00  75:  0.00  76:  0.00  77:  0.00  78:  0.00  79:  0.00  80:  0.00
  81:  0.00  82:  0.00  83:  0.00  84:  0.00
 output can be read by thermo (or use thermo option).
 writing <g98.out> molden fake output.
 recommended (thermochemical) frequency scaling factor: 1.0
           -------------------------------------------------
          |             Thermodynamic Functions             |
           -------------------------------------------------

Molecule has no symmetry elements
It seems to be the C1 point group
c1  symmetry found (for desy threshold:  0.10E+00) used in thermo

          ...................................................
          :                      SETUP                      :
          :.................................................:
          :  # frequencies                          78      :
          :  # imaginary freq.                       0      :
          :  linear?                             false      :
          :  only rotor calc.                    false      :
          :  symmetry                               c1      :
          :  rotational number                       1      :
          :  scaling factor                  1.0000000      :
          :  rotor cutoff                   50.0000000 cm⁻¹ :
          :  imag. cutoff                  -20.0000000 cm⁻¹ :
          :.................................................:

    mode    ω/cm⁻¹     T·S(HO)/kcal·mol⁻¹    T·S(FR)/kcal·mol⁻¹   T·S(vib)
   ------------------------------------------------------------------------
       1     15.74    -2.11991 (  0.97%)    -1.39869 ( 99.03%)    -1.40570
       2     44.17    -1.50948 ( 37.84%)    -1.09318 ( 62.16%)    -1.25073
       3     65.04    -1.28149 ( 74.11%)    -0.97857 ( 25.89%)    -1.20307
       4     92.06    -1.07805 ( 91.99%)    -0.87567 (  8.01%)    -1.06185
       5    101.73    -1.01995 ( 94.49%)    -0.84609 (  5.51%)    -1.01036
       6    127.63    -0.88892 ( 97.70%)    -0.77890 (  2.30%)    -0.88638
       7    165.97    -0.73960 ( 99.18%)    -0.70109 (  0.82%)    -0.73928
       8    201.11    -0.63294 ( 99.62%)    -0.64420 (  0.38%)    -0.63298
       9    208.34    -0.61365 ( 99.67%)    -0.63375 (  0.33%)    -0.61372
      10    240.08    -0.53736 ( 99.81%)    -0.59175 (  0.19%)    -0.53746
      11    256.85    -0.50180 ( 99.86%)    -0.57174 (  0.14%)    -0.50190
   ------------------------------------------------------------------------

   temp. (K)  partition function   enthalpy   heat capacity  entropy
                                   cal/mol     cal/K/mol   cal/K/mol   J/K/mol
 298.15  VIB  0.238E+06             7354.932     48.250     45.651
         ROT  0.203E+07              888.752      2.981     31.838
         INT  0.482E+12             8243.684     51.231     77.489
         TR   0.270E+28             1481.254      4.968     41.738
         TOT                        9724.9384    56.1989   119.2280   498.8498

       T/K    H(0)-H(T)+PV         H(T)/Eh          T*S/Eh         G(T)/Eh
   ------------------------------------------------------------------------
    298.15    0.154977E-01    0.238442E+00    0.566490E-01    0.181793E+00
   ------------------------------------------------------------------------

         :::::::::::::::::::::::::::::::::::::::::::::::::::::
         ::                  THERMODYNAMIC                  ::
         :::::::::::::::::::::::::::::::::::::::::::::::::::::
         :: total free energy         -44.624239145017 Eh   ::
         ::.................................................::
         :: total energy              -44.806032529794 Eh   ::
         :: zero point energy           0.222944757365 Eh   ::
         :: G(RRHO) w/o ZPVE           -0.041151372588 Eh   ::
         :: G(RRHO) contrib.            0.181793384777 Eh   ::
         :::::::::::::::::::::::::::::::::::::::::::::::::::::

optimized geometry written to: xtbopt.xyz


           -------------------------------------------------
          | TOTAL ENERGY              -44.806032529794 Eh   |
          | TOTAL ENTHALPY            -44.567590096679 Eh   |
          | TOTAL FREE ENERGY         -44.624239145017 Eh   |
          | GRADIENT NORM               0.000834520750 Eh/α |
          | HOMO-LUMO GAP               4.135683615937 eV   |
           -------------------------------------------------

------------------------------------------------------------------------
 * finished run on 2021/11/15 at 09:36:26.034     
------------------------------------------------------------------------
 total:
 * wall-time:     0 d,  0 h,  0 min,  3.093 sec
 *  cpu-time:     0 d,  0 h,  0 min,  3.078 sec
 * ratio c/w:     0.995 speedup
 SCF:
 * wall-time:     0 d,  0 h,  0 min,  0.023 sec
 *  cpu-time:     0 d,  0 h,  0 min,  0.016 sec
 * ratio c/w:     0.685 speedup
 ANC optimizer:
 * wall-time:     0 d,  0 h,  0 min,  0.275 sec
 *  cpu-time:     0 d,  0 h,  0 min,  0.281 sec
 * ratio c/w:     1.023 speedup
 analytical hessian:
 * wall-time:     0 d,  0 h,  0 min,  2.752 sec
 *  cpu-time:     0 d,  0 h,  0 min,  2.734 sec
 * ratio c/w:     0.993 speedup

