 Entering Gaussian System
 *********************************************
 Gaussian 98:
 frequency output generated by the xtb code
 *********************************************
                         Standard orientation:
 --------------------------------------------------------------------
  Center     Atomic     Atomic              Coordinates (Angstroms)
  Number     Number      Type              X           Y           Z
 --------------------------------------------------------------------
    1          8             0        0.300546   -0.891158   -0.758301
    2          8             0        1.802536    0.240443    1.345551
    3          8             0        4.278421    0.345556   -0.067000
    4          8             0       -0.382519    1.615724   -0.336431
    5          6             0        2.276309   -0.865488    0.608038
    6          6             0        1.110142   -1.713245    0.072452
    7          6             0        3.169281   -0.378410   -0.543072
    8          6             0       -0.992612   -0.649639   -0.339827
    9          6             0       -1.378941    0.691651   -0.171254
   10          6             0       -1.908349   -1.666626   -0.133738
   11          6             0       -2.692829    0.980111    0.165293
   12          6             0       -3.214958   -1.366345    0.217379
   13          6             0       -3.603049   -0.048148    0.356920
   14          6             0       -0.730993    2.988268   -0.302397
   15          1             0        2.869948   -1.458280    1.310621
   16          1             0        1.497091   -2.541021   -0.528309
   17          1             0        0.526930   -2.105743    0.910255
   18          1             0        2.563454    0.242276   -1.217976
   19          1             0        3.567903   -1.226375   -1.100947
   20          1             0       -1.593881   -2.691104   -0.261656
   21          1             0       -3.012835    2.000704    0.295674
   22          1             0        1.179705    0.730209    0.778734
   23          1             0       -3.923516   -2.163988    0.372478
   24          1             0       -4.620242    0.192308    0.622608
   25          1             0        3.960229    0.967276    0.606006
   26          1             0        0.185970    3.524185   -0.535120
   27          1             0       -1.086272    3.279325    0.689217
   28          1             0       -1.490365    3.217871   -1.052936
 --------------------------------------------------------------------
     1 basis functions        1 primitive gaussians
     1 alpha electrons        1 beta electrons
 
 Harmonic frequencies (cm**-1), IR intensities (km*mol⁻¹),
 Raman scattering activities (A**4/amu), Raman depolarization ratios,
 reduced masses (AMU), force constants (mDyne/A) and normal coordinates:
                      1                      2                      3
                        a                      a                      a 
 Frequencies --    15.7373                44.1672                65.0392
 Red. masses --    13.0851                11.7859                12.1333
 Frc consts  --     0.0000                 0.0000                 0.0000
 IR Inten    --     0.4304                 2.8486                 0.5033
 Raman Activ --     0.0000                 0.0000                 0.0000
 Depolar     --     0.0000                 0.0000                 0.0000
 Atom AN      X      Y      Z        X      Y      Z        X      Y      Z
   1   8    -0.05  -0.27  -0.20    -0.01  -0.19   0.11     0.04   0.08   0.18
   2   8    -0.28  -0.10   0.07     0.08   0.31  -0.02     0.22  -0.41   0.43
   3   8    -0.30   0.39   0.10    -0.04   0.02  -0.38    -0.08   0.11  -0.25
   4   8     0.23  -0.16  -0.06     0.12  -0.14   0.21     0.01   0.02   0.11
   5   6    -0.11   0.03  -0.02     0.01   0.17   0.09     0.11  -0.13  -0.02
   6   6     0.02  -0.09  -0.09    -0.02   0.06   0.33     0.04  -0.05   0.03
   7   6    -0.16   0.23   0.03    -0.13   0.01  -0.09    -0.20   0.22  -0.11
   8   6     0.01  -0.10  -0.06    -0.02  -0.08   0.01     0.02   0.02   0.12
   9   6     0.14  -0.07  -0.01     0.04  -0.07   0.04    -0.01   0.03   0.02
  10   6    -0.06  -0.02  -0.00    -0.10  -0.04  -0.12     0.02   0.02   0.11
  11   6     0.18   0.04   0.09     0.02  -0.01  -0.07    -0.05   0.03  -0.16
  12   6    -0.01   0.08   0.09    -0.12   0.01  -0.23    -0.02   0.03  -0.04
  13   6     0.11   0.12   0.14    -0.05   0.03  -0.21    -0.06   0.03  -0.20
  14   6     0.30  -0.11  -0.06     0.19  -0.10   0.29    -0.02   0.01  -0.19
  15   1    -0.01   0.01  -0.02     0.03   0.08   0.03     0.09  -0.08  -0.09
  16   1     0.04  -0.01  -0.02    -0.01  -0.04   0.17    -0.01  -0.01  -0.02
  17   1     0.00  -0.05  -0.04    -0.01   0.09   0.13     0.03  -0.02   0.02
  18   1    -0.07   0.06   0.02    -0.06  -0.01  -0.02    -0.11   0.12   0.07
  19   1    -0.01   0.09  -0.01    -0.07  -0.02  -0.01    -0.10   0.11  -0.14
  20   1    -0.04  -0.01  -0.01    -0.04  -0.02  -0.04     0.01   0.00   0.06
  21   1     0.08   0.02   0.04     0.02  -0.00  -0.01    -0.02   0.01  -0.08
  22   1    -0.06  -0.01   0.01     0.00   0.05  -0.01     0.03  -0.06   0.17
  23   1    -0.02   0.04   0.04    -0.05   0.01  -0.10    -0.01   0.01  -0.02
  24   1     0.04   0.06   0.06    -0.02   0.02  -0.09    -0.03   0.01  -0.10
  25   1    -0.10   0.07   0.04     0.03   0.04  -0.11     0.03  -0.02   0.01
  26   1     0.09  -0.05  -0.04     0.07  -0.04   0.12     0.00  -0.00  -0.03
  27   1     0.11  -0.02  -0.01     0.04  -0.05   0.09    -0.06   0.05  -0.09
  28   1     0.08  -0.02  -0.01     0.08   0.01   0.07     0.03  -0.04  -0.11
                      4                      5                      6
                        a                      a                      a 
 Frequencies --    92.0596               101.7282               127.6305
 Red. masses --    10.6058                10.2639                11.6883
 Frc consts  --     0.0000                 0.0000                 0.0000
 IR Inten    --     8.2910                 9.8588                 4.6515
 Raman Activ --     0.0000                 0.0000                 0.0000
 Depolar     --     0.0000                 0.0000                 0.0000
 Atom AN      X      Y      Z        X      Y      Z        X      Y      Z
   1   8     0.03   0.06   0.15     0.03   0.05   0.07     0.15   0.02  -0.02
   2   8     0.08  -0.10  -0.19     0.14   0.01  -0.10     0.03  -0.08   0.24
   3   8    -0.30   0.39  -0.00    -0.23   0.25  -0.03    -0.24   0.01  -0.21
   4   8    -0.02   0.03  -0.09     0.05   0.03   0.34    -0.05   0.17  -0.36
   5   6     0.07  -0.18  -0.03     0.04  -0.11   0.03    -0.06  -0.09   0.18
   6   6     0.02  -0.11  -0.04    -0.03  -0.03   0.05    -0.12  -0.01   0.22
   7   6     0.14  -0.27  -0.01     0.10  -0.25   0.01    -0.20  -0.15   0.05
   8   6     0.02   0.02   0.10     0.01   0.03   0.03     0.09   0.08  -0.20
   9   6    -0.03   0.03  -0.08     0.04   0.01   0.22     0.06   0.06  -0.16
  10   6     0.05   0.02   0.22    -0.04   0.03  -0.22     0.13   0.04  -0.21
  11   6    -0.07   0.04  -0.25     0.05  -0.00   0.27     0.10  -0.03   0.08
  12   6     0.01   0.03   0.10    -0.05   0.01  -0.24     0.17  -0.05  -0.02
  13   6    -0.05   0.04  -0.17     0.01  -0.01   0.05     0.17  -0.07   0.19
  14   6     0.06   0.03   0.29    -0.08   0.01  -0.36    -0.12   0.12   0.11
  15   1    -0.00  -0.04   0.02    -0.01  -0.03   0.03    -0.01  -0.03   0.04
  16   1    -0.01  -0.01  -0.05    -0.03  -0.02   0.01    -0.06  -0.05   0.12
  17   1     0.02  -0.05  -0.01    -0.01   0.00   0.01    -0.09   0.07   0.06
  18   1     0.01  -0.21  -0.10     0.01  -0.18  -0.08    -0.10  -0.08   0.01
  19   1     0.17  -0.09   0.11     0.12  -0.09   0.10    -0.06  -0.06   0.03
  20   1     0.02   0.00   0.12    -0.02   0.01  -0.12     0.05   0.02  -0.09
  21   1    -0.03   0.01  -0.13     0.03  -0.00   0.13     0.02  -0.02   0.06
  22   1     0.02  -0.05  -0.07     0.03  -0.01  -0.03     0.02  -0.00   0.06
  23   1     0.01   0.01   0.06    -0.03   0.00  -0.13     0.06  -0.02   0.00
  24   1    -0.02   0.01  -0.09     0.00  -0.01   0.02     0.06  -0.03   0.12
  25   1    -0.18   0.05  -0.01    -0.13   0.03  -0.01    -0.04   0.00  -0.05
  26   1     0.03   0.01   0.15    -0.04  -0.00  -0.19    -0.06   0.07  -0.01
  27   1    -0.01  -0.07   0.10    -0.02   0.14  -0.14     0.04  -0.04   0.08
  28   1     0.04   0.09   0.08    -0.04  -0.13  -0.13    -0.10   0.08   0.11
                      7                      8                      9
                        a                      a                      a 
 Frequencies --   165.9709               201.1135               208.3375
 Red. masses --    12.5024                 8.5958                11.6309
 Frc consts  --     0.0000                 0.0000                 0.0000
 IR Inten    --     7.6481                 4.3949                 6.0410
 Raman Activ --     0.0000                 0.0000                 0.0000
 Depolar     --     0.0000                 0.0000                 0.0000
 Atom AN      X      Y      Z        X      Y      Z        X      Y      Z
   1   8     0.12  -0.01  -0.02    -0.05   0.03  -0.25    -0.03  -0.52  -0.19
   2   8    -0.54  -0.00  -0.11     0.26   0.10   0.05     0.17  -0.01  -0.04
   3   8    -0.04  -0.16  -0.22    -0.15  -0.03   0.11     0.01   0.03   0.13
   4   8     0.10   0.17   0.33     0.07  -0.02   0.31    -0.00   0.19   0.07
   5   6    -0.14   0.02   0.09    -0.08   0.01  -0.04     0.06  -0.02  -0.08
   6   6     0.05  -0.12  -0.07    -0.19   0.14   0.03     0.06  -0.12   0.09
   7   6    -0.16  -0.07   0.03    -0.05  -0.06  -0.03     0.05   0.05  -0.05
   8   6     0.16   0.06   0.07    -0.05   0.03  -0.23     0.06  -0.06  -0.01
   9   6     0.13   0.05   0.09    -0.04   0.01  -0.11     0.16  -0.03  -0.01
  10   6     0.21   0.03   0.13     0.06  -0.02  -0.05    -0.08   0.06   0.04
  11   6     0.06  -0.01  -0.10    -0.07  -0.03  -0.17     0.15   0.04  -0.05
  12   6     0.18  -0.03   0.05     0.13  -0.08   0.25    -0.06   0.14   0.02
  13   6     0.09  -0.04  -0.14     0.05  -0.09   0.09     0.03   0.17  -0.05
  14   6    -0.11   0.12  -0.02     0.10  -0.00  -0.05    -0.49   0.06   0.09
  15   1    -0.04   0.05   0.06    -0.04  -0.03  -0.03     0.03  -0.00  -0.03
  16   1     0.05   0.00  -0.05    -0.07  -0.02   0.08     0.03  -0.08   0.09
  17   1    -0.00  -0.08  -0.05    -0.09   0.12   0.02     0.02   0.02   0.06
  18   1    -0.05  -0.03   0.01    -0.00  -0.02  -0.02     0.02   0.04  -0.00
  19   1    -0.08  -0.04   0.02    -0.00  -0.02   0.00     0.02   0.03  -0.04
  20   1     0.08   0.01   0.05     0.03  -0.00  -0.02    -0.05   0.01   0.02
  21   1    -0.00  -0.01  -0.06    -0.04  -0.01  -0.09     0.06   0.02  -0.03
  22   1    -0.11  -0.03  -0.08     0.05   0.05   0.05     0.05   0.02   0.00
  23   1     0.06  -0.02   0.02     0.07  -0.03   0.16    -0.03   0.05   0.01
  24   1     0.01  -0.02  -0.08     0.02  -0.04   0.06     0.01   0.08  -0.03
  25   1     0.02   0.06  -0.14    -0.06  -0.09   0.09    -0.01  -0.05   0.08
  26   1    -0.03   0.06   0.07     0.11  -0.01   0.27    -0.19   0.12   0.08
  27   1    -0.14   0.06  -0.05    -0.27   0.00  -0.12    -0.21  -0.04   0.02
  28   1     0.04  -0.03  -0.09     0.26   0.01  -0.25    -0.13  -0.05  -0.01
                     10                     11                     12
                        a                      a                      a 
 Frequencies --   240.0761               256.8534               308.1693
 Red. masses --     6.4141                 9.7955                10.8685
 Frc consts  --     0.0000                 0.0000                 0.0000
 IR Inten    --     3.5248                 8.4904                 7.1280
 Raman Activ --     0.0000                 0.0000                 0.0000
 Depolar     --     0.0000                 0.0000                 0.0000
 Atom AN      X      Y      Z        X      Y      Z        X      Y      Z
   1   8    -0.02  -0.01  -0.09     0.08   0.07   0.32     0.15   0.10   0.30
   2   8     0.14   0.10  -0.13    -0.03   0.03  -0.34    -0.18  -0.14  -0.20
   3   8    -0.22  -0.12   0.20    -0.19  -0.11   0.23     0.09   0.04   0.05
   4   8     0.06   0.05   0.18    -0.00   0.05  -0.22     0.03  -0.05   0.26
   5   6    -0.08  -0.01  -0.11     0.02  -0.06  -0.16     0.12  -0.07  -0.07
   6   6    -0.14   0.03   0.05    -0.02  -0.13   0.16     0.02  -0.10   0.20
   7   6    -0.16   0.04  -0.12    -0.16   0.15  -0.18     0.06   0.11  -0.06
   8   6     0.04   0.05  -0.01     0.06   0.03   0.16    -0.03  -0.03  -0.17
   9   6     0.04   0.03   0.04     0.03   0.03   0.06    -0.05  -0.03  -0.20
  10   6     0.15  -0.02   0.16     0.06  -0.01  -0.02    -0.12   0.02  -0.32
  11   6    -0.01  -0.04  -0.08     0.05  -0.02   0.16    -0.06   0.05  -0.30
  12   6     0.12  -0.09   0.06     0.02  -0.04  -0.18     0.02   0.07   0.19
  13   6     0.02  -0.09  -0.19     0.06  -0.05   0.04     0.04   0.07   0.22
  14   6     0.08   0.06   0.01     0.05   0.05  -0.03    -0.06  -0.06   0.02
  15   1    -0.00  -0.00  -0.05     0.06   0.03  -0.05     0.07   0.02  -0.02
  16   1    -0.06  -0.04   0.06    -0.06  -0.06   0.04    -0.07  -0.08   0.07
  17   1    -0.05   0.07   0.04     0.01   0.01   0.08     0.02   0.05   0.10
  18   1    -0.03   0.06   0.00    -0.05   0.14   0.04     0.01   0.06   0.02
  19   1    -0.05   0.04  -0.08    -0.07   0.11  -0.16     0.02   0.06  -0.06
  20   1     0.07   0.00   0.08     0.03   0.00  -0.02    -0.06   0.00  -0.12
  21   1    -0.02  -0.02  -0.01     0.00  -0.01   0.05    -0.01   0.02  -0.11
  22   1     0.04   0.04  -0.02    -0.02  -0.03  -0.11    -0.09  -0.11  -0.06
  23   1     0.05  -0.03   0.04    -0.01  -0.01  -0.12     0.02   0.02   0.15
  24   1    -0.01  -0.04  -0.10     0.01  -0.02   0.01     0.04   0.02   0.17
  25   1    -0.07  -0.16   0.17    -0.06  -0.17   0.19     0.01   0.06  -0.04
  26   1    -0.06  -0.01  -0.39     0.07   0.02   0.23    -0.06  -0.01  -0.13
  27   1     0.38   0.13   0.10    -0.18  -0.06  -0.06     0.08   0.04   0.03
  28   1    -0.24  -0.06   0.25     0.17   0.09  -0.15    -0.10  -0.08   0.07
                     13                     14                     15
                        a                      a                      a 
 Frequencies --   320.6059               358.6189               397.9922
 Red. masses --    11.1500                 7.6376                 5.8969
 Frc consts  --     0.0000                 0.0000                 0.0000
 IR Inten    --    10.8255                30.9938               148.0081
 Raman Activ --     0.0000                 0.0000                 0.0000
 Depolar     --     0.0000                 0.0000                 0.0000
 Atom AN      X      Y      Z        X      Y      Z        X      Y      Z
   1   8    -0.10  -0.40  -0.08     0.02  -0.16   0.10     0.03   0.02  -0.07
   2   8    -0.08  -0.16  -0.01     0.15   0.24   0.02    -0.28  -0.13  -0.01
   3   8     0.16   0.09   0.01    -0.12  -0.04  -0.10     0.18   0.24  -0.28
   4   8    -0.18   0.28   0.02    -0.09   0.11   0.05    -0.02  -0.04   0.02
   5   6     0.07  -0.04  -0.07     0.00   0.04   0.18     0.05  -0.00   0.02
   6   6    -0.01  -0.10   0.15     0.27  -0.16  -0.18    -0.05   0.07   0.08
   7   6     0.15   0.05  -0.01    -0.14  -0.06   0.08     0.15  -0.05   0.05
   8   6    -0.02   0.08   0.02     0.03  -0.02   0.10    -0.01   0.01  -0.10
   9   6    -0.08   0.11   0.01    -0.03   0.01  -0.04    -0.03  -0.01  -0.02
  10   6    -0.01   0.05  -0.02    -0.11   0.02  -0.21     0.03   0.02   0.08
  11   6    -0.15  -0.11   0.03    -0.09  -0.04  -0.19    -0.01   0.01   0.09
  12   6    -0.04  -0.15  -0.01    -0.05  -0.02   0.05     0.00   0.03  -0.00
  13   6    -0.10  -0.17   0.03    -0.03  -0.03   0.17    -0.04   0.02  -0.05
  14   6     0.29   0.39  -0.06     0.09   0.16  -0.01    -0.00  -0.04  -0.00
  15   1     0.03  -0.00  -0.02    -0.01   0.03   0.07    -0.02  -0.01   0.03
  16   1    -0.04  -0.09   0.11     0.22   0.12  -0.19    -0.07  -0.05   0.09
  17   1     0.01   0.06   0.10     0.10  -0.28  -0.15    -0.03   0.12   0.07
  18   1     0.05   0.01  -0.02    -0.08  -0.01   0.06     0.03  -0.04   0.00
  19   1     0.06   0.02   0.01    -0.07  -0.01  -0.01     0.03  -0.03   0.03
  20   1     0.04   0.03  -0.03    -0.05   0.01  -0.13     0.01   0.00   0.06
  21   1    -0.06  -0.03   0.00    -0.03  -0.00  -0.11     0.01   0.00   0.06
  22   1    -0.03  -0.05   0.00     0.06   0.07  -0.01     0.00  -0.00  -0.05
  23   1     0.01  -0.06  -0.02    -0.01  -0.01   0.03     0.00   0.00   0.00
  24   1    -0.03  -0.06   0.01     0.01  -0.00   0.10    -0.02   0.00  -0.03
  25   1     0.02   0.13  -0.10     0.03  -0.29   0.27     0.15  -0.54   0.53
  26   1     0.15  -0.00  -0.02     0.04  -0.00  -0.04     0.00  -0.01   0.01
  27   1     0.11   0.17  -0.02     0.07   0.08   0.00    -0.01  -0.01  -0.00
  28   1     0.12   0.19  -0.02     0.02   0.07   0.02     0.01  -0.01  -0.01
                     16                     17                     18
                        a                      a                      a 
 Frequencies --   437.8994               475.3020               478.4948
 Red. masses --    10.6916                10.4358                 9.4138
 Frc consts  --     0.0000                 0.0000                 0.0000
 IR Inten    --     0.6361                 9.9334                 8.8171
 Raman Activ --     0.0000                 0.0000                 0.0000
 Depolar     --     0.0000                 0.0000                 0.0000
 Atom AN      X      Y      Z        X      Y      Z        X      Y      Z
   1   8    -0.29   0.00   0.04     0.15  -0.07  -0.24     0.17  -0.07  -0.10
   2   8    -0.08  -0.06   0.10     0.06  -0.01  -0.18    -0.13  -0.04   0.23
   3   8     0.07   0.05  -0.03     0.04   0.05  -0.04    -0.18  -0.16   0.11
   4   8     0.23   0.04  -0.17    -0.19  -0.18  -0.10    -0.20  -0.10  -0.03
   5   6    -0.08   0.07  -0.11     0.05  -0.19   0.14     0.06   0.26  -0.16
   6   6    -0.16   0.11  -0.01    -0.03  -0.07   0.03     0.22   0.11   0.06
   7   6     0.09  -0.02  -0.05    -0.07   0.07   0.18     0.04  -0.12  -0.31
   8   6    -0.06   0.06   0.41     0.18   0.11   0.07     0.17   0.01   0.08
   9   6     0.18   0.10   0.33    -0.10  -0.03   0.40    -0.09  -0.06   0.14
  10   6    -0.06  -0.06  -0.24     0.11   0.18  -0.16     0.08   0.09  -0.07
  11   6     0.02   0.02  -0.26    -0.21   0.09   0.00    -0.12   0.06  -0.02
  12   6     0.04  -0.16   0.08     0.18   0.15   0.13     0.11   0.15  -0.00
  13   6     0.19  -0.10   0.04    -0.17   0.07  -0.04    -0.10   0.08   0.05
  14   6    -0.04  -0.03   0.00     0.01  -0.18  -0.01     0.01  -0.07  -0.00
  15   1    -0.04  -0.01  -0.04    -0.02  -0.05   0.07     0.10   0.10  -0.09
  16   1    -0.08   0.01   0.01    -0.03  -0.07   0.06     0.08   0.01   0.06
  17   1    -0.02   0.06   0.03    -0.06   0.05   0.00     0.07   0.06   0.04
  18   1     0.06  -0.03  -0.07    -0.10   0.06   0.16     0.11  -0.10  -0.23
  19   1     0.04  -0.04   0.05    -0.05   0.09  -0.07     0.05  -0.12   0.07
  20   1    -0.00   0.01  -0.25    -0.01   0.05  -0.15    -0.02   0.02  -0.06
  21   1    -0.09  -0.01  -0.24    -0.07   0.04  -0.11    -0.02   0.03  -0.07
  22   1     0.05   0.06   0.02     0.16   0.04  -0.16    -0.27  -0.13   0.21
  23   1    -0.01  -0.03  -0.00     0.09   0.01   0.03     0.04   0.02  -0.03
  24   1     0.05  -0.02  -0.02    -0.08  -0.03  -0.10    -0.04  -0.01  -0.00
  25   1     0.02  -0.05   0.05     0.05   0.07  -0.05    -0.13  -0.09   0.04
  26   1    -0.06   0.06  -0.00     0.02  -0.08   0.01     0.03  -0.07  -0.00
  27   1    -0.01  -0.07   0.02     0.01  -0.05   0.00     0.02  -0.01   0.00
  28   1    -0.04  -0.04   0.03     0.01  -0.01  -0.00     0.01   0.02   0.00
                     19                     20                     21
                        a                      a                      a 
 Frequencies --   521.0889               541.0945               556.1058
 Red. masses --    10.8613                 4.3837                10.2093
 Frc consts  --     0.0000                 0.0000                 0.0000
 IR Inten    --     2.8942               238.0737                 8.3996
 Raman Activ --     0.0000                 0.0000                 0.0000
 Depolar     --     0.0000                 0.0000                 0.0000
 Atom AN      X      Y      Z        X      Y      Z        X      Y      Z
   1   8     0.16   0.21   0.02    -0.14  -0.08   0.01     0.03   0.13  -0.17
   2   8    -0.02  -0.01  -0.00     0.18   0.14  -0.13     0.06   0.02  -0.09
   3   8    -0.05  -0.03   0.02     0.07   0.06  -0.05     0.03   0.03  -0.03
   4   8    -0.06   0.14  -0.12     0.10  -0.01  -0.06    -0.33   0.05   0.08
   5   6     0.06   0.01   0.02    -0.01  -0.09   0.10    -0.02  -0.09   0.04
   6   6     0.05   0.07   0.01    -0.05  -0.05  -0.00    -0.11   0.12  -0.05
   7   6    -0.02  -0.02  -0.02     0.00   0.01   0.11    -0.02   0.01   0.11
   8   6    -0.03  -0.20  -0.19    -0.11   0.10  -0.04     0.07  -0.28   0.19
   9   6     0.21  -0.17   0.28    -0.02   0.12   0.04     0.02  -0.24   0.07
  10   6    -0.24  -0.10  -0.16     0.03   0.00  -0.07     0.03  -0.31   0.12
  11   6     0.20  -0.19   0.11    -0.02   0.09   0.10     0.10   0.07  -0.20
  12   6    -0.14  -0.05   0.38     0.08  -0.05   0.09     0.02   0.11  -0.21
  13   6    -0.13   0.02  -0.30     0.05  -0.03  -0.13     0.21   0.13   0.20
  14   6     0.02   0.21  -0.02    -0.02  -0.05  -0.00     0.00   0.17   0.00
  15   1     0.02   0.01   0.00    -0.01  -0.03   0.03    -0.05  -0.05   0.02
  16   1    -0.00   0.00   0.02     0.02   0.03  -0.04    -0.07  -0.03   0.05
  17   1    -0.01   0.05  -0.00    -0.01  -0.08  -0.03    -0.08   0.12  -0.00
  18   1    -0.01  -0.00  -0.00    -0.04   0.03   0.09    -0.04   0.02   0.08
  19   1    -0.01  -0.00  -0.01    -0.01   0.04  -0.03    -0.02   0.03  -0.02
  20   1    -0.13  -0.05  -0.07     0.04   0.02  -0.04    -0.07  -0.11   0.00
  21   1     0.09  -0.04  -0.00    -0.04   0.01   0.05     0.08   0.05  -0.15
  22   1    -0.04  -0.04   0.00    -0.62  -0.48   0.26    -0.16  -0.14   0.05
  23   1    -0.04   0.00   0.20     0.03  -0.01   0.05    -0.07   0.09  -0.14
  24   1    -0.05   0.08  -0.20     0.00  -0.03  -0.07     0.07   0.04   0.07
  25   1    -0.02  -0.01  -0.00     0.04  -0.04   0.04     0.03   0.01   0.00
  26   1     0.04   0.02   0.02    -0.03   0.02   0.01     0.07  -0.07  -0.02
  27   1     0.01   0.06  -0.01    -0.02  -0.05   0.00     0.05   0.11  -0.00
  28   1     0.03   0.10  -0.01    -0.02  -0.04   0.01     0.03   0.12  -0.00
                     22                     23                     24
                        a                      a                      a 
 Frequencies --   563.0374               641.0465               681.0472
 Red. masses --    11.0613                10.8909                11.6565
 Frc consts  --     0.0000                 0.0000                 0.0000
 IR Inten    --    39.5956                 8.2682                 1.7743
 Raman Activ --     0.0000                 0.0000                 0.0000
 Depolar     --     0.0000                 0.0000                 0.0000
 Atom AN      X      Y      Z        X      Y      Z        X      Y      Z
   1   8     0.18   0.12  -0.22     0.16   0.04   0.16     0.02  -0.01   0.07
   2   8     0.01  -0.01  -0.08     0.11   0.17   0.11    -0.01   0.01   0.02
   3   8    -0.04  -0.02  -0.00     0.19   0.13  -0.04    -0.00  -0.00   0.01
   4   8     0.26   0.03  -0.03    -0.07  -0.01  -0.01     0.07   0.03  -0.10
   5   6     0.08  -0.06   0.07    -0.42   0.04  -0.19     0.03   0.02   0.02
   6   6     0.04   0.14  -0.01    -0.34  -0.40  -0.05     0.06  -0.10   0.05
   7   6    -0.04  -0.02   0.05     0.07   0.08  -0.04     0.01   0.00  -0.04
   8   6     0.17   0.09   0.10     0.19  -0.02  -0.05    -0.21   0.02  -0.57
   9   6     0.16   0.02  -0.02     0.08  -0.12   0.04     0.08   0.04   0.55
  10   6    -0.13   0.31   0.18     0.05   0.16   0.01     0.05  -0.07   0.23
  11   6    -0.02  -0.34  -0.16     0.05  -0.19  -0.04    -0.13   0.11  -0.23
  12   6    -0.34  -0.08  -0.10     0.02   0.10  -0.01    -0.06  -0.03  -0.22
  13   6    -0.25  -0.11   0.26    -0.15   0.02   0.06     0.07  -0.02   0.20
  14   6     0.01  -0.04  -0.00     0.01  -0.01  -0.00     0.00   0.02  -0.01
  15   1     0.01  -0.02   0.03    -0.11   0.01  -0.06     0.04   0.03   0.00
  16   1    -0.02  -0.02   0.06    -0.07  -0.09  -0.03     0.04   0.01  -0.03
  17   1    -0.04   0.12  -0.00    -0.11  -0.14  -0.04     0.03  -0.08  -0.00
  18   1    -0.05   0.01   0.06     0.12   0.01  -0.11     0.01  -0.00  -0.02
  19   1    -0.03   0.02  -0.03     0.05  -0.02   0.08     0.01  -0.00   0.00
  20   1    -0.05   0.08   0.03    -0.03   0.03  -0.00     0.03  -0.02   0.11
  21   1    -0.02  -0.09  -0.10     0.06  -0.04  -0.04    -0.07   0.02  -0.06
  22   1    -0.14  -0.14   0.02    -0.07   0.09   0.18     0.01   0.00  -0.00
  23   1    -0.05  -0.08  -0.11     0.04  -0.01  -0.03    -0.02   0.00  -0.00
  24   1    -0.05   0.05   0.10    -0.04   0.03   0.01     0.01  -0.03   0.05
  25   1    -0.01  -0.00  -0.00     0.07   0.01   0.03    -0.01  -0.01   0.00
  26   1    -0.04   0.06  -0.01     0.02  -0.03  -0.00    -0.01   0.03   0.01
  27   1    -0.01  -0.05   0.01     0.01   0.01  -0.00    -0.01  -0.02   0.00
  28   1    -0.02  -0.06   0.01     0.01   0.02  -0.00    -0.01   0.00   0.00
                     25                     26                     27
                        a                      a                      a 
 Frequencies --   775.7676               782.7143               807.5020
 Red. masses --     7.9710                 7.4263                11.1384
 Frc consts  --     0.0000                 0.0000                 0.0000
 IR Inten    --    75.8094                58.1057                24.6027
 Raman Activ --     0.0000                 0.0000                 0.0000
 Depolar     --     0.0000                 0.0000                 0.0000
 Atom AN      X      Y      Z        X      Y      Z        X      Y      Z
   1   8     0.19   0.05  -0.08     0.04  -0.00  -0.05     0.38   0.09  -0.23
   2   8     0.00   0.04   0.03     0.01   0.01  -0.00     0.01   0.09   0.07
   3   8     0.02   0.01   0.00     0.00   0.00  -0.01     0.03   0.01   0.00
   4   8     0.34   0.09  -0.01     0.31   0.09  -0.09    -0.07  -0.02   0.01
   5   6    -0.03   0.00  -0.00    -0.04  -0.00  -0.03    -0.05  -0.01  -0.01
   6   6     0.02  -0.15   0.01    -0.01   0.01  -0.04     0.05  -0.28  -0.03
   7   6     0.00   0.01  -0.02    -0.01  -0.00   0.03    -0.00   0.02  -0.03
   8   6    -0.03  -0.14  -0.04     0.07  -0.16   0.18     0.02   0.04   0.16
   9   6    -0.13   0.04  -0.15    -0.03  -0.04   0.10    -0.09   0.16   0.03
  10   6     0.02  -0.32   0.08     0.04  -0.27  -0.16    -0.20  -0.02   0.01
  11   6    -0.20   0.16   0.22    -0.23   0.03  -0.08    -0.08   0.33  -0.00
  12   6     0.05   0.03   0.12     0.11   0.15  -0.14    -0.32  -0.30   0.03
  13   6    -0.16   0.02   0.16    -0.33   0.05  -0.06     0.30  -0.07  -0.14
  14   6     0.02   0.13  -0.00     0.02   0.14  -0.01     0.00  -0.06  -0.00
  15   1     0.02   0.03   0.00    -0.03  -0.01  -0.00     0.03   0.05   0.01
  16   1    -0.00  -0.07   0.04    -0.02  -0.04   0.03    -0.03  -0.17   0.10
  17   1    -0.04   0.01  -0.01    -0.01   0.06   0.01    -0.08   0.06  -0.01
  18   1     0.01  -0.00  -0.02    -0.00  -0.00   0.01     0.03  -0.00  -0.04
  19   1     0.01  -0.00   0.01    -0.01  -0.00   0.01     0.01  -0.01   0.02
  20   1    -0.12  -0.10  -0.21    -0.00  -0.11   0.24     0.00  -0.00   0.07
  21   1    -0.17   0.05  -0.26     0.03   0.00   0.31    -0.10   0.05   0.13
  22   1     0.01   0.03   0.02    -0.01   0.00   0.02    -0.00   0.04   0.04
  23   1    -0.10   0.04  -0.31     0.13   0.02   0.33    -0.13  -0.02   0.16
  24   1    -0.15  -0.07  -0.28    -0.02  -0.09   0.35     0.12   0.01   0.11
  25   1     0.00   0.00   0.00     0.01   0.00   0.00     0.01  -0.00   0.01
  26   1    -0.07   0.16  -0.01    -0.05   0.15   0.02     0.00  -0.02   0.00
  27   1    -0.03  -0.03   0.01    -0.03  -0.02   0.00    -0.00  -0.01  -0.00
  28   1    -0.03  -0.05   0.01    -0.02  -0.03   0.00     0.00  -0.01  -0.00
                     28                     29                     30
                        a                      a                      a 
 Frequencies --   861.4399               871.7425               902.4251
 Red. masses --     3.5048                 8.8912                 4.0013
 Frc consts  --     0.0000                 0.0000                 0.0000
 IR Inten    --     1.5900                30.6853                 0.5739
 Raman Activ --     0.0000                 0.0000                 0.0000
 Depolar     --     0.0000                 0.0000                 0.0000
 Atom AN      X      Y      Z        X      Y      Z        X      Y      Z
   1   8    -0.01   0.02  -0.02     0.08  -0.06   0.11     0.01   0.01   0.00
   2   8    -0.03   0.04   0.04     0.17  -0.23  -0.22     0.03  -0.07  -0.05
   3   8     0.01   0.01   0.01    -0.06  -0.05  -0.06     0.01  -0.00  -0.00
   4   8     0.00   0.00  -0.02    -0.00  -0.00  -0.01     0.00  -0.00   0.01
   5   6     0.04  -0.03   0.06    -0.17   0.17  -0.28    -0.02   0.03   0.00
   6   6    -0.03  -0.03   0.03     0.18   0.11  -0.07    -0.00   0.02   0.06
   7   6     0.04  -0.02  -0.09    -0.26   0.13   0.45    -0.04   0.04   0.02
   8   6    -0.01  -0.00   0.00     0.01  -0.01  -0.05    -0.02   0.00  -0.05
   9   6     0.00  -0.00   0.02    -0.01   0.02   0.02    -0.01   0.00  -0.04
  10   6     0.05  -0.02   0.19    -0.01   0.02   0.01     0.09  -0.02   0.33
  11   6    -0.08   0.01  -0.32    -0.04   0.05  -0.06     0.05  -0.01   0.18
  12   6     0.05  -0.00   0.21    -0.01  -0.03   0.07    -0.04   0.01  -0.16
  13   6    -0.03   0.00  -0.06     0.03  -0.01   0.01    -0.07   0.02  -0.25
  14   6     0.00   0.00   0.00     0.00  -0.00  -0.00    -0.00  -0.00  -0.00
  15   1     0.02   0.01   0.02    -0.04  -0.03  -0.13     0.02   0.01  -0.02
  16   1     0.01   0.01  -0.01     0.00  -0.05   0.06     0.04   0.04  -0.01
  17   1    -0.04  -0.04  -0.03     0.14   0.14   0.10    -0.01  -0.05  -0.02
  18   1    -0.00   0.02   0.01     0.04  -0.10  -0.10     0.02  -0.02  -0.04
  19   1     0.01   0.02  -0.06    -0.06  -0.13   0.38     0.00  -0.02   0.06
  20   1    -0.11   0.02  -0.44     0.00   0.01  -0.04    -0.13   0.03  -0.58
  21   1     0.17  -0.03   0.63     0.01   0.00   0.13    -0.07   0.01  -0.26
  22   1     0.00  -0.00  -0.01    -0.01  -0.00   0.05     0.01  -0.02  -0.02
  23   1    -0.09   0.01  -0.34    -0.04  -0.00  -0.11     0.07  -0.00   0.28
  24   1     0.01  -0.00   0.07    -0.01  -0.00  -0.05     0.11  -0.01   0.44
  25   1    -0.03  -0.01  -0.01     0.21   0.04   0.04     0.03   0.01   0.01
  26   1     0.00   0.00   0.02    -0.00   0.00   0.00    -0.00   0.00  -0.01
  27   1    -0.01   0.01  -0.00    -0.00  -0.00  -0.00     0.00  -0.01   0.00
  28   1     0.01  -0.01  -0.01    -0.00  -0.00  -0.00    -0.00   0.01   0.00
                     31                     32                     33
                        a                      a                      a 
 Frequencies --   918.1538               927.1280               941.5067
 Red. masses --     3.1472                 8.2821                 7.0021
 Frc consts  --     0.0000                 0.0000                 0.0000
 IR Inten    --     0.1224                34.2246                30.5652
 Raman Activ --     0.0000                 0.0000                 0.0000
 Depolar     --     0.0000                 0.0000                 0.0000
 Atom AN      X      Y      Z        X      Y      Z        X      Y      Z
   1   8     0.01   0.00  -0.01     0.20  -0.07  -0.05    -0.17   0.18  -0.24
   2   8     0.01  -0.01  -0.01     0.07  -0.26  -0.17     0.06  -0.07  -0.06
   3   8     0.00   0.00   0.00     0.11   0.07   0.02     0.02  -0.04   0.04
   4   8     0.00  -0.00   0.00     0.03  -0.01  -0.00    -0.01   0.01   0.01
   5   6    -0.01   0.00   0.00    -0.32  -0.01   0.09     0.22   0.06   0.25
   6   6    -0.00   0.01   0.02    -0.13   0.32   0.35    -0.13  -0.25   0.16
   7   6    -0.01   0.01  -0.00    -0.00   0.02  -0.16    -0.18   0.25  -0.07
   8   6     0.02  -0.00   0.07     0.10  -0.03   0.02    -0.06   0.04   0.08
   9   6    -0.02   0.00  -0.08    -0.03  -0.01   0.01     0.02   0.01  -0.01
  10   6     0.03  -0.01   0.10    -0.05  -0.01  -0.04     0.00  -0.05  -0.05
  11   6    -0.02   0.01  -0.07    -0.06   0.11   0.00     0.04  -0.10  -0.03
  12   6    -0.08   0.01  -0.27    -0.07  -0.07   0.04     0.05   0.05  -0.00
  13   6     0.06  -0.01   0.28     0.04  -0.01   0.00    -0.03   0.02   0.02
  14   6     0.00   0.00   0.00     0.00   0.03  -0.00    -0.00  -0.02  -0.00
  15   1     0.00   0.00  -0.00    -0.09  -0.08  -0.04     0.34   0.16  -0.04
  16   1     0.01   0.01   0.00     0.33   0.35  -0.04    -0.02   0.02  -0.06
  17   1    -0.01  -0.01  -0.01    -0.10  -0.30  -0.14    -0.13  -0.15  -0.07
  18   1     0.01  -0.00  -0.01     0.06   0.03  -0.07     0.10  -0.11  -0.30
  19   1     0.00  -0.00   0.01     0.04   0.02  -0.03     0.04  -0.12   0.32
  20   1    -0.06   0.01  -0.27    -0.01  -0.02   0.10     0.02  -0.02   0.09
  21   1     0.06  -0.01   0.22    -0.03   0.02   0.03     0.04  -0.02   0.01
  22   1     0.00  -0.00  -0.00     0.03  -0.05  -0.05     0.04  -0.14  -0.16
  23   1     0.13  -0.02   0.55    -0.05  -0.01  -0.03     0.01   0.02  -0.02
  24   1    -0.15   0.02  -0.57     0.00  -0.01  -0.02    -0.01   0.02  -0.01
  25   1     0.01   0.00   0.00     0.00   0.00   0.00     0.15   0.01   0.06
  26   1     0.00   0.00   0.01    -0.01   0.02   0.00     0.01  -0.02  -0.00
  27   1    -0.00   0.00  -0.00    -0.00  -0.00   0.00     0.00   0.00  -0.00
  28   1     0.00  -0.01  -0.00    -0.00  -0.01   0.00     0.00   0.00  -0.00
                     34                     35                     36
                        a                      a                      a 
 Frequencies --  1019.1235              1033.4628              1068.2542
 Red. masses --    11.1591                11.7134                10.2525
 Frc consts  --     0.0000                 0.0000                 0.0000
 IR Inten    --    39.1177                33.7169               153.6193
 Raman Activ --     0.0000                 0.0000                 0.0000
 Depolar     --     0.0000                 0.0000                 0.0000
 Atom AN      X      Y      Z        X      Y      Z        X      Y      Z
   1   8     0.09  -0.20   0.19     0.24  -0.24   0.18    -0.07   0.12  -0.12
   2   8    -0.05   0.13   0.08    -0.06   0.15   0.10    -0.07   0.16   0.09
   3   8    -0.06  -0.07  -0.01    -0.06  -0.07  -0.01    -0.35  -0.25  -0.17
   4   8     0.11  -0.32  -0.01    -0.10   0.40   0.01     0.01  -0.08   0.00
   5   6     0.21  -0.09   0.07     0.10  -0.17   0.05    -0.09  -0.29  -0.15
   6   6    -0.27   0.18  -0.23    -0.19   0.22  -0.21     0.17  -0.05   0.24
   7   6    -0.01   0.15  -0.03     0.01   0.16  -0.06     0.33   0.30   0.12
   8   6     0.17  -0.11  -0.06     0.00   0.02  -0.02    -0.04   0.03   0.03
   9   6    -0.11  -0.23   0.02     0.11   0.20  -0.01    -0.01   0.00  -0.00
  10   6    -0.03   0.24   0.03     0.02  -0.19  -0.01     0.01  -0.01  -0.01
  11   6    -0.08   0.17   0.03    -0.01   0.00   0.01     0.02  -0.04  -0.01
  12   6    -0.05  -0.08   0.01    -0.03  -0.00   0.01     0.01   0.01  -0.00
  13   6     0.12  -0.05  -0.04    -0.10   0.02   0.03    -0.00   0.01   0.00
  14   6    -0.03   0.37  -0.01     0.05  -0.42   0.00    -0.01   0.07  -0.00
  15   1     0.07  -0.09  -0.05    -0.00  -0.16  -0.07    -0.11  -0.14  -0.02
  16   1    -0.14   0.03  -0.10    -0.06   0.02  -0.03     0.11   0.05   0.02
  17   1    -0.04   0.02  -0.04    -0.04   0.04  -0.05     0.05  -0.06   0.04
  18   1     0.02  -0.06  -0.11     0.02  -0.06  -0.13     0.01  -0.06  -0.05
  19   1     0.07  -0.02   0.12     0.10   0.01   0.10     0.35   0.19   0.03
  20   1    -0.04   0.06  -0.00    -0.02  -0.06  -0.00     0.04   0.01  -0.00
  21   1    -0.01   0.05  -0.00    -0.05  -0.01   0.01     0.02  -0.01  -0.00
  22   1     0.01  -0.10  -0.12     0.02  -0.11  -0.13    -0.01   0.02   0.00
  23   1     0.04  -0.07  -0.01    -0.05   0.03   0.01    -0.01   0.01   0.00
  24   1     0.02  -0.07  -0.01    -0.03   0.01   0.01     0.01   0.03   0.00
  25   1     0.07   0.00   0.02     0.08   0.01   0.02     0.20   0.02   0.02
  26   1    -0.05   0.16   0.01     0.05  -0.17  -0.01    -0.01   0.02   0.00
  27   1    -0.03   0.01   0.01     0.03  -0.01  -0.01    -0.01  -0.00   0.00
  28   1    -0.03   0.00   0.00     0.03  -0.02  -0.00    -0.01  -0.00   0.00
                     37                     38                     39
                        a                      a                      a 
 Frequencies --  1080.5856              1090.8430              1103.1400
 Red. masses --    10.0375                 6.0229                10.2178
 Frc consts  --     0.0000                 0.0000                 0.0000
 IR Inten    --    39.2262                10.6851               247.3053
 Raman Activ --     0.0000                 0.0000                 0.0000
 Depolar     --     0.0000                 0.0000                 0.0000
 Atom AN      X      Y      Z        X      Y      Z        X      Y      Z
   1   8     0.02  -0.02  -0.01    -0.04   0.02   0.00    -0.15   0.10  -0.11
   2   8     0.03  -0.17  -0.09    -0.00   0.02   0.01    -0.12   0.22   0.12
   3   8    -0.28  -0.15  -0.14     0.02   0.01   0.01     0.15   0.12   0.08
   4   8     0.01   0.17  -0.01    -0.04   0.08   0.01     0.05   0.23  -0.02
   5   6     0.23   0.35  -0.10    -0.03  -0.04   0.01     0.13  -0.24  -0.34
   6   6    -0.33  -0.05   0.05     0.07   0.01   0.01     0.03   0.02   0.24
   7   6     0.33   0.03   0.30    -0.02   0.01  -0.03    -0.26  -0.22   0.09
   8   6     0.15  -0.07  -0.02     0.03  -0.08  -0.01     0.20  -0.12  -0.04
   9   6    -0.00  -0.06  -0.00    -0.04   0.05   0.01    -0.02  -0.17  -0.01
  10   6    -0.03   0.03   0.01    -0.19   0.16   0.06    -0.03   0.10   0.01
  11   6    -0.05   0.08   0.01    -0.07  -0.22   0.01    -0.05   0.18   0.02
  12   6    -0.02  -0.04   0.00     0.18   0.32  -0.04    -0.03  -0.10   0.00
  13   6     0.03  -0.03  -0.01     0.33  -0.19  -0.09     0.00  -0.03  -0.00
  14   6     0.03  -0.12   0.01     0.10  -0.04  -0.03     0.02  -0.14   0.03
  15   1     0.11   0.24   0.06    -0.02  -0.03  -0.00     0.16  -0.04  -0.19
  16   1    -0.07   0.10  -0.14     0.01  -0.02   0.03    -0.04   0.14  -0.16
  17   1    -0.07  -0.16  -0.04    -0.01   0.02  -0.01     0.13  -0.14   0.07
  18   1     0.00   0.08   0.20    -0.00  -0.01  -0.02    -0.08  -0.06   0.05
  19   1    -0.03   0.05  -0.06     0.02   0.00   0.01     0.00  -0.00  -0.01
  20   1    -0.12  -0.03   0.03    -0.50  -0.10   0.10    -0.10  -0.00   0.02
  21   1    -0.03   0.02   0.01    -0.36  -0.18   0.09     0.07   0.08  -0.01
  22   1    -0.02   0.09   0.12     0.00  -0.01  -0.01    -0.02   0.05   0.02
  23   1     0.01  -0.02   0.00    -0.03   0.18   0.02     0.07  -0.10  -0.02
  24   1    -0.00  -0.06   0.00     0.06  -0.22  -0.02    -0.02  -0.10   0.00
  25   1    -0.07  -0.04  -0.03     0.02   0.00   0.00     0.13   0.06   0.03
  26   1     0.01  -0.03  -0.01    -0.02   0.08   0.01     0.01  -0.04  -0.02
  27   1     0.00   0.00  -0.01    -0.03  -0.08  -0.00     0.00   0.05  -0.01
  28   1     0.01  -0.01  -0.00    -0.03  -0.06   0.03     0.03  -0.03  -0.02
                     40                     41                     42
                        a                      a                      a 
 Frequencies --  1111.6648              1116.4217              1141.1860
 Red. masses --     9.0683                 3.9800                 4.5280
 Frc consts  --     0.0000                 0.0000                 0.0000
 IR Inten    --    74.5305                10.0264                18.6319
 Raman Activ --     0.0000                 0.0000                 0.0000
 Depolar     --     0.0000                 0.0000                 0.0000
 Atom AN      X      Y      Z        X      Y      Z        X      Y      Z
   1   8     0.25  -0.09  -0.06     0.06  -0.03  -0.00    -0.06  -0.02   0.04
   2   8    -0.08   0.12   0.08    -0.01   0.01   0.01     0.02  -0.08  -0.07
   3   8     0.03   0.05   0.01     0.00   0.00  -0.00     0.02  -0.00   0.07
   4   8    -0.08  -0.27   0.06    -0.06  -0.08  -0.21    -0.20   0.14   0.03
   5   6     0.17  -0.04  -0.29     0.02   0.00  -0.03     0.02   0.03   0.06
   6   6    -0.18   0.06   0.08    -0.03   0.01  -0.00    -0.02   0.03  -0.04
   7   6    -0.08  -0.16   0.17    -0.00  -0.01   0.02    -0.11  -0.04  -0.12
   8   6    -0.14   0.18   0.06    -0.05   0.05   0.02     0.11  -0.04  -0.04
   9   6     0.01   0.22   0.01    -0.01   0.05   0.01    -0.12  -0.06   0.03
  10   6     0.06  -0.20  -0.03     0.01  -0.04  -0.00     0.09  -0.02  -0.03
  11   6     0.03  -0.25  -0.02     0.01  -0.07  -0.00     0.02  -0.03  -0.00
  12   6    -0.01   0.11   0.01     0.01   0.04   0.00    -0.07  -0.04   0.02
  13   6     0.01   0.06   0.00     0.01   0.01  -0.00     0.02   0.04  -0.00
  14   6     0.02   0.16  -0.09     0.08   0.06   0.40     0.33  -0.06  -0.06
  15   1     0.17   0.01  -0.17     0.02   0.00  -0.02    -0.05   0.16   0.19
  16   1     0.00   0.12  -0.11     0.01   0.01  -0.01    -0.05   0.00  -0.03
  17   1     0.02  -0.15  -0.01    -0.01  -0.02  -0.01    -0.00   0.03   0.00
  18   1    -0.02   0.02   0.10     0.00   0.00   0.01    -0.17  -0.14  -0.02
  19   1    -0.08  -0.03  -0.02    -0.01  -0.01  -0.00     0.24   0.12  -0.04
  20   1     0.11  -0.02  -0.01     0.02  -0.00  -0.01     0.12   0.02  -0.03
  21   1    -0.13  -0.12   0.04    -0.04  -0.03  -0.01     0.02  -0.00  -0.01
  22   1    -0.00   0.02  -0.00    -0.00   0.00   0.00    -0.04   0.13   0.16
  23   1    -0.18   0.20   0.05    -0.05   0.06   0.01    -0.07   0.03   0.02
  24   1     0.05   0.19  -0.01     0.01   0.04   0.00     0.05   0.19  -0.01
  25   1     0.01   0.02  -0.00    -0.01  -0.00  -0.00     0.25   0.08   0.05
  26   1    -0.03   0.11   0.05    -0.05  -0.01  -0.22    -0.16   0.41   0.02
  27   1     0.00  -0.16   0.03    -0.20   0.54  -0.14    -0.10  -0.23  -0.01
  28   1    -0.06   0.05   0.05     0.12  -0.54  -0.18    -0.08  -0.26   0.06
                     43                     44                     45
                        a                      a                      a 
 Frequencies --  1143.6441              1173.6413              1186.4892
 Red. masses --     3.9298                 2.5243                 3.7344
 Frc consts  --     0.0000                 0.0000                 0.0000
 IR Inten    --    91.1164                30.4607                16.4177
 Raman Activ --     0.0000                 0.0000                 0.0000
 Depolar     --     0.0000                 0.0000                 0.0000
 Atom AN      X      Y      Z        X      Y      Z        X      Y      Z
   1   8     0.10  -0.06   0.03     0.04  -0.02   0.01    -0.12   0.01  -0.03
   2   8    -0.00  -0.08  -0.07    -0.01   0.01   0.01     0.02  -0.02  -0.04
   3   8     0.02   0.01   0.09    -0.01   0.00   0.00     0.03  -0.01  -0.00
   4   8     0.15  -0.14  -0.03    -0.10  -0.10   0.02     0.13   0.02  -0.02
   5   6     0.06   0.03  -0.02     0.01   0.01  -0.04    -0.03  -0.07   0.09
   6   6    -0.06   0.06  -0.06    -0.00   0.01  -0.01     0.05   0.01   0.07
   7   6    -0.15  -0.11  -0.11    -0.01  -0.04   0.02     0.01   0.11  -0.07
   8   6    -0.08   0.06   0.02    -0.11  -0.04   0.03     0.27  -0.06  -0.07
   9   6     0.09   0.08  -0.02     0.05   0.21   0.00    -0.08  -0.05   0.01
  10   6    -0.04  -0.02   0.01    -0.00  -0.05  -0.00     0.15  -0.05  -0.04
  11   6    -0.02  -0.01   0.00     0.11   0.08  -0.02    -0.11  -0.04   0.03
  12   6     0.04   0.04  -0.01     0.06  -0.06  -0.02    -0.08  -0.03   0.02
  13   6    -0.02  -0.02   0.00    -0.08   0.04   0.02     0.04   0.06  -0.01
  14   6    -0.25   0.06   0.04     0.03   0.05  -0.00    -0.11   0.00   0.02
  15   1    -0.00   0.23   0.20     0.04   0.01  -0.03    -0.12  -0.00   0.13
  16   1    -0.01   0.01  -0.01     0.07  -0.01   0.06    -0.25   0.05  -0.21
  17   1    -0.06   0.01  -0.05    -0.07   0.00  -0.05     0.19  -0.02   0.13
  18   1    -0.24  -0.18   0.01    -0.01  -0.00   0.02     0.02  -0.00  -0.06
  19   1     0.32   0.17  -0.07     0.02   0.02  -0.02    -0.07  -0.06   0.07
  20   1    -0.06  -0.02   0.01    -0.37  -0.13   0.08     0.02  -0.02  -0.01
  21   1    -0.05  -0.02   0.02    -0.10  -0.02   0.03    -0.39  -0.13   0.10
  22   1    -0.05   0.17   0.21     0.00  -0.01  -0.01    -0.02   0.06   0.07
  23   1     0.00   0.02   0.00     0.51  -0.49  -0.14    -0.08   0.04   0.02
  24   1    -0.03  -0.10   0.00     0.06   0.39  -0.00     0.12   0.52  -0.02
  25   1     0.36   0.11   0.07     0.03   0.01   0.01    -0.10  -0.04  -0.02
  26   1     0.12  -0.31  -0.02    -0.01   0.04  -0.00     0.08  -0.18  -0.01
  27   1     0.08   0.17   0.01    -0.02  -0.03  -0.00     0.03   0.09  -0.00
  28   1     0.05   0.20  -0.04    -0.02  -0.05   0.01     0.03   0.10  -0.01
                     46                     47                     48
                        a                      a                      a 
 Frequencies --  1204.2201              1222.2709              1245.3700
 Red. masses --     4.3512                 4.4387                 4.9286
 Frc consts  --     0.0000                 0.0000                 0.0000
 IR Inten    --    74.5050                16.7692                77.6616
 Raman Activ --     0.0000                 0.0000                 0.0000
 Depolar     --     0.0000                 0.0000                 0.0000
 Atom AN      X      Y      Z        X      Y      Z        X      Y      Z
   1   8     0.14  -0.06  -0.08     0.06   0.05  -0.11     0.05   0.03  -0.01
   2   8    -0.00  -0.01  -0.08     0.04  -0.04   0.06    -0.06   0.02  -0.03
   3   8     0.05  -0.02  -0.02     0.01  -0.01   0.06     0.13  -0.03   0.04
   4   8    -0.10  -0.10   0.02    -0.05  -0.07   0.01     0.06   0.09  -0.01
   5   6    -0.02  -0.27   0.03     0.10   0.41   0.02     0.34  -0.03  -0.20
   6   6     0.05   0.11   0.10    -0.11  -0.17   0.08    -0.10  -0.06   0.05
   7   6     0.02   0.19  -0.05    -0.03  -0.04  -0.10    -0.03   0.21  -0.03
   8   6    -0.10   0.10   0.03     0.03   0.06   0.02    -0.14  -0.00   0.04
   9   6     0.10   0.15  -0.01     0.05   0.11  -0.01    -0.07  -0.15   0.01
  10   6    -0.07  -0.06   0.02    -0.00  -0.05   0.00    -0.09   0.04   0.02
  11   6     0.09   0.03  -0.02     0.04   0.02  -0.01    -0.06  -0.06   0.01
  12   6     0.03  -0.02  -0.01    -0.01  -0.02   0.00     0.07   0.04  -0.02
  13   6    -0.06  -0.02   0.01    -0.04  -0.02   0.01     0.08   0.04  -0.02
  14   6     0.04   0.03  -0.01     0.00   0.03  -0.00     0.00  -0.04  -0.00
  15   1    -0.07   0.15   0.25    -0.41  -0.34   0.00    -0.32  -0.18   0.15
  16   1    -0.33   0.09  -0.28    -0.15   0.04  -0.16     0.26  -0.00   0.17
  17   1     0.18  -0.06   0.10     0.30  -0.10   0.22    -0.15  -0.07  -0.11
  18   1     0.04  -0.00  -0.09    -0.21  -0.12   0.04    -0.31  -0.23   0.00
  19   1    -0.14  -0.12   0.13     0.06   0.04  -0.04    -0.15  -0.14   0.19
  20   1    -0.16  -0.06   0.03    -0.13  -0.06   0.02     0.12   0.06  -0.02
  21   1     0.22   0.08  -0.05     0.09   0.03  -0.02    -0.02  -0.02   0.00
  22   1    -0.05   0.22   0.24     0.04  -0.23  -0.22    -0.04   0.15   0.16
  23   1     0.06  -0.05  -0.02    -0.01  -0.00   0.00     0.08  -0.05  -0.02
  24   1    -0.07  -0.25   0.01    -0.03  -0.09   0.01     0.04   0.06  -0.01
  25   1    -0.19  -0.07  -0.03     0.10   0.04   0.02    -0.22  -0.08  -0.04
  26   1    -0.03   0.08   0.00    -0.01   0.02   0.00    -0.00   0.00   0.00
  27   1    -0.02  -0.05   0.00    -0.00  -0.01   0.00     0.01   0.01  -0.00
  28   1    -0.01  -0.05   0.01    -0.01  -0.03  -0.00     0.01   0.02   0.00
                     49                     50                     51
                        a                      a                      a 
 Frequencies --  1248.5266              1255.2444              1296.0330
 Red. masses --     4.4093                 9.5323                 2.9656
 Frc consts  --     0.0000                 0.0000                 0.0000
 IR Inten    --    27.5369               348.1560                77.0157
 Raman Activ --     0.0000                 0.0000                 0.0000
 Depolar     --     0.0000                 0.0000                 0.0000
 Atom AN      X      Y      Z        X      Y      Z        X      Y      Z
   1   8    -0.04  -0.04   0.05    -0.27   0.05   0.08     0.00   0.02  -0.01
   2   8    -0.01   0.00  -0.00    -0.03   0.02  -0.02     0.01  -0.01  -0.01
   3   8     0.00  -0.00   0.00     0.04  -0.01   0.01     0.22  -0.09  -0.05
   4   8     0.13   0.02  -0.02    -0.14  -0.19   0.02    -0.01  -0.01   0.00
   5   6     0.01  -0.01  -0.01     0.13  -0.03  -0.07    -0.20   0.01   0.08
   6   6     0.04   0.01  -0.02     0.04  -0.03   0.02    -0.11  -0.00  -0.10
   7   6    -0.00   0.00   0.01    -0.01   0.06   0.01    -0.03   0.13   0.11
   8   6     0.10   0.29  -0.03     0.36  -0.12  -0.11     0.02  -0.01  -0.00
   9   6    -0.29   0.01   0.07     0.18   0.33  -0.02     0.00   0.03   0.00
  10   6     0.09  -0.04  -0.02     0.27  -0.05  -0.07     0.03   0.00  -0.01
  11   6    -0.12  -0.13   0.03     0.19   0.18  -0.04     0.02   0.01  -0.00
  12   6     0.07  -0.15  -0.02    -0.21  -0.05   0.05    -0.02  -0.00   0.00
  13   6     0.07  -0.08  -0.02    -0.20  -0.11   0.05    -0.01  -0.02   0.00
  14   6    -0.06  -0.03   0.01    -0.01   0.08   0.00    -0.00   0.00   0.00
  15   1     0.00  -0.02  -0.01    -0.07  -0.07   0.02     0.30   0.11  -0.18
  16   1     0.04  -0.03   0.05     0.14  -0.03   0.12     0.12   0.01   0.06
  17   1    -0.10   0.03  -0.07    -0.21   0.03  -0.14     0.24   0.03   0.18
  18   1    -0.01  -0.00   0.00    -0.08  -0.06   0.00    -0.34  -0.26   0.05
  19   1    -0.01  -0.01   0.01    -0.05  -0.05   0.06     0.33   0.19   0.03
  20   1    -0.43  -0.16   0.09    -0.16  -0.10   0.04    -0.04  -0.02   0.00
  21   1     0.51   0.15  -0.13    -0.10   0.01   0.02     0.01   0.00  -0.00
  22   1    -0.00   0.01   0.01    -0.02   0.06   0.06     0.02  -0.02  -0.04
  23   1    -0.19   0.16   0.05    -0.20   0.11   0.05    -0.02   0.01   0.00
  24   1     0.09   0.29  -0.01    -0.09  -0.15   0.02    -0.00  -0.00   0.00
  25   1    -0.01  -0.00  -0.00    -0.06  -0.02  -0.01    -0.47  -0.19  -0.09
  26   1    -0.02   0.01   0.01     0.02  -0.03  -0.00     0.00  -0.00  -0.00
  27   1     0.05   0.05   0.01    -0.03  -0.03   0.00    -0.00  -0.00   0.00
  28   1     0.03   0.05  -0.03    -0.02  -0.04   0.01     0.00  -0.00  -0.00
                     52                     53                     54
                        a                      a                      a 
 Frequencies --  1309.5409              1329.2698              1331.9901
 Red. masses --     3.3227                11.2216                 3.9558
 Frc consts  --     0.0000                 0.0000                 0.0000
 IR Inten    --    12.6716                28.8156                77.9964
 Raman Activ --     0.0000                 0.0000                 0.0000
 Depolar     --     0.0000                 0.0000                 0.0000
 Atom AN      X      Y      Z        X      Y      Z        X      Y      Z
   1   8     0.01  -0.08   0.04     0.10  -0.03  -0.04     0.01   0.03  -0.03
   2   8    -0.01  -0.01  -0.05     0.01   0.00   0.01    -0.09  -0.01  -0.22
   3   8     0.06  -0.03   0.00    -0.00   0.00   0.01    -0.02  -0.01  -0.03
   4   8    -0.01   0.01  -0.00     0.12   0.07  -0.02     0.01  -0.01  -0.01
   5   6    -0.10   0.18   0.05    -0.03   0.01  -0.02     0.20   0.07   0.31
   6   6     0.32   0.02   0.16     0.02   0.02   0.04    -0.09  -0.06  -0.04
   7   6     0.04   0.02   0.02     0.04   0.01  -0.01    -0.13  -0.07   0.03
   8   6    -0.03   0.05  -0.00    -0.19  -0.41   0.05    -0.02  -0.02   0.01
   9   6     0.03  -0.05  -0.01    -0.40   0.23   0.11    -0.04   0.04   0.01
  10   6    -0.06  -0.02   0.01     0.23   0.15  -0.06     0.01   0.00  -0.00
  11   6    -0.04  -0.02   0.01     0.25   0.01  -0.06     0.04  -0.00  -0.01
  12   6     0.03  -0.02  -0.01    -0.19   0.32   0.06    -0.02   0.03   0.01
  13   6     0.01   0.07  -0.00     0.02  -0.39  -0.02     0.00  -0.03  -0.00
  14   6     0.01  -0.00   0.00    -0.05  -0.05   0.01    -0.00  -0.02   0.00
  15   1     0.06  -0.22  -0.29     0.01   0.02  -0.01     0.04  -0.44  -0.30
  16   1    -0.44  -0.02  -0.25    -0.10   0.01  -0.06     0.06  -0.01   0.04
  17   1    -0.45   0.03  -0.31    -0.02  -0.03  -0.02     0.12  -0.01   0.09
  18   1    -0.22  -0.14   0.07    -0.06  -0.03   0.02     0.26   0.16  -0.09
  19   1     0.09   0.05  -0.01    -0.03  -0.02   0.00     0.17   0.10  -0.03
  20   1     0.06   0.02  -0.00     0.11   0.06  -0.02     0.00   0.00  -0.00
  21   1    -0.03  -0.01   0.01     0.15   0.03  -0.04     0.02   0.00  -0.00
  22   1    -0.01   0.05   0.03     0.01  -0.02  -0.02    -0.10   0.38   0.37
  23   1     0.02  -0.02  -0.01     0.05  -0.00  -0.01     0.02  -0.01  -0.00
  24   1    -0.00  -0.02  -0.00     0.05   0.06  -0.01     0.00  -0.01   0.00
  25   1    -0.10  -0.04  -0.02     0.02   0.01   0.00    -0.02  -0.01  -0.01
  26   1    -0.00   0.00  -0.00    -0.01  -0.02   0.00    -0.01   0.01  -0.01
  27   1    -0.01  -0.00  -0.00     0.03   0.05   0.00    -0.01   0.02  -0.01
  28   1    -0.00  -0.00   0.00     0.02   0.06  -0.01     0.00   0.03   0.01
                     55                     56                     57
                        a                      a                      a 
 Frequencies --  1340.6523              1391.6408              1432.5274
 Red. masses --     4.0430                 2.5027                 6.5127
 Frc consts  --     0.0000                 0.0000                 0.0000
 IR Inten    --    74.0764                 0.8144                11.9123
 Raman Activ --     0.0000                 0.0000                 0.0000
 Depolar     --     0.0000                 0.0000                 0.0000
 Atom AN      X      Y      Z        X      Y      Z        X      Y      Z
   1   8     0.01  -0.02   0.01    -0.01  -0.00   0.00    -0.04  -0.04   0.04
   2   8     0.03  -0.01   0.08     0.00   0.00   0.01     0.00   0.00   0.00
   3   8     0.11  -0.03  -0.09    -0.00   0.00   0.00    -0.00   0.00   0.00
   4   8     0.01   0.01  -0.00    -0.00  -0.13   0.00     0.06   0.00  -0.01
   5   6     0.15   0.05  -0.18    -0.01  -0.00  -0.01    -0.00  -0.02   0.01
   6   6     0.05  -0.01   0.06     0.00   0.00  -0.00    -0.03  -0.15   0.00
   7   6    -0.36  -0.06   0.18     0.01   0.00  -0.00     0.01   0.00  -0.02
   8   6    -0.02  -0.02   0.00     0.03   0.05  -0.01     0.24   0.17  -0.06
   9   6    -0.02   0.00   0.01     0.02   0.01  -0.00    -0.27   0.08   0.07
  10   6     0.00   0.01  -0.00     0.02  -0.03  -0.01    -0.02  -0.23  -0.00
  11   6     0.01  -0.00  -0.00     0.05   0.00  -0.01     0.04  -0.21  -0.02
  12   6    -0.01   0.02   0.00    -0.04  -0.01   0.01    -0.27   0.14   0.07
  13   6     0.01  -0.01  -0.00    -0.01   0.05   0.00     0.19   0.22  -0.04
  14   6    -0.00  -0.00  -0.00     0.04  -0.31   0.00    -0.04   0.02   0.01
  15   1    -0.26   0.08   0.26     0.00   0.01   0.01     0.01   0.00   0.00
  16   1    -0.06   0.02  -0.06     0.00  -0.00   0.00     0.19   0.26  -0.24
  17   1    -0.16   0.02  -0.10    -0.00   0.00  -0.00    -0.11   0.40   0.11
  18   1     0.35   0.19  -0.15    -0.01  -0.01   0.01    -0.01   0.01   0.02
  19   1     0.39   0.25  -0.01    -0.01  -0.00   0.00    -0.02  -0.02   0.02
  20   1     0.02   0.01  -0.00    -0.01  -0.02   0.00     0.07  -0.04  -0.02
  21   1     0.01  -0.00  -0.00    -0.08  -0.03   0.02     0.03  -0.06  -0.01
  22   1     0.03  -0.12  -0.11     0.00  -0.02  -0.02    -0.00  -0.00  -0.00
  23   1     0.01  -0.00  -0.00     0.01  -0.02  -0.00     0.18  -0.20  -0.05
  24   1     0.00   0.00  -0.00    -0.02  -0.05   0.00    -0.01  -0.24  -0.00
  25   1    -0.31  -0.12  -0.07     0.00   0.00   0.00     0.01   0.00   0.00
  26   1    -0.00   0.00   0.00    -0.28   0.47   0.04     0.01  -0.03  -0.01
  27   1     0.01   0.01  -0.00    -0.01   0.50  -0.16     0.04  -0.03   0.03
  28   1     0.00   0.00  -0.00     0.05   0.51   0.11     0.03  -0.02  -0.04
                     58                     59                     60
                        a                      a                      a 
 Frequencies --  1439.7562              1457.5668              1462.0128
 Red. masses --     4.8631                 1.5799                 8.0533
 Frc consts  --     0.0000                 0.0000                 0.0000
 IR Inten    --    14.8519                 9.7314               233.8908
 Raman Activ --     0.0000                 0.0000                 0.0000
 Depolar     --     0.0000                 0.0000                 0.0000
 Atom AN      X      Y      Z        X      Y      Z        X      Y      Z
   1   8     0.05  -0.02   0.01     0.01  -0.00  -0.00     0.09  -0.04  -0.01
   2   8    -0.00   0.00  -0.00     0.00   0.00   0.00     0.00  -0.00   0.00
   3   8    -0.01   0.00   0.00     0.00   0.00   0.00    -0.00   0.00   0.00
   4   8    -0.06  -0.03   0.01     0.01   0.01   0.03     0.07   0.10  -0.01
   5   6    -0.00  -0.01   0.01    -0.00  -0.00  -0.00    -0.00   0.00  -0.00
   6   6    -0.03  -0.20   0.03    -0.00  -0.00   0.00     0.01  -0.04   0.00
   7   6     0.01   0.00  -0.02     0.00   0.00   0.01     0.00  -0.00  -0.01
   8   6    -0.14  -0.18   0.04    -0.03   0.01   0.01    -0.28   0.24   0.08
   9   6     0.23   0.02  -0.05    -0.01  -0.03   0.00    -0.17  -0.37   0.02
  10   6    -0.08   0.16   0.03     0.02   0.01  -0.01     0.32   0.08  -0.08
  11   6    -0.09   0.14   0.03     0.02   0.01  -0.01     0.33   0.10  -0.08
  12   6     0.24  -0.07  -0.06     0.00  -0.01  -0.00    -0.10  -0.12   0.02
  13   6    -0.13  -0.21   0.02    -0.01  -0.00   0.00    -0.12   0.07   0.03
  14   6     0.02  -0.02  -0.01     0.05   0.01   0.21     0.11   0.03  -0.04
  15   1    -0.00  -0.01  -0.00    -0.00   0.00   0.01    -0.01  -0.01  -0.00
  16   1     0.21   0.34  -0.34     0.01   0.01  -0.01     0.04   0.06  -0.06
  17   1    -0.14   0.49   0.14    -0.00   0.01   0.00    -0.03   0.09   0.02
  18   1    -0.01   0.01   0.01     0.00  -0.01  -0.01     0.00   0.01   0.01
  19   1    -0.02  -0.02   0.02    -0.01   0.00  -0.01     0.00  -0.00   0.01
  20   1    -0.01   0.05   0.00    -0.02  -0.00   0.00    -0.22  -0.08   0.05
  21   1     0.04   0.06  -0.01    -0.01  -0.00   0.02    -0.20  -0.08   0.05
  22   1    -0.00   0.01   0.01     0.00  -0.01  -0.01     0.00   0.00  -0.00
  23   1    -0.11   0.15   0.03    -0.01   0.01   0.00    -0.09   0.02   0.02
  24   1     0.03   0.21   0.00    -0.00  -0.00   0.00    -0.06  -0.10   0.01
  25   1     0.01   0.01   0.00     0.00   0.00   0.00     0.00   0.00   0.00
  26   1    -0.01   0.03   0.02    -0.16  -0.03  -0.69     0.10  -0.14   0.03
  27   1    -0.02   0.03  -0.02    -0.32  -0.35  -0.01    -0.27   0.04  -0.11
  28   1    -0.02   0.02   0.03     0.28   0.33  -0.16    -0.23   0.01   0.23
                     61                     62                     63
                        a                      a                      a 
 Frequencies --  1465.5964              1472.2840              1581.5774
 Red. masses --     1.8258                 3.3129                11.5574
 Frc consts  --     0.0000                 0.0000                 0.0000
 IR Inten    --     2.5584                20.9097                 5.3835
 Raman Activ --     0.0000                 0.0000                 0.0000
 Depolar     --     0.0000                 0.0000                 0.0000
 Atom AN      X      Y      Z        X      Y      Z        X      Y      Z
   1   8    -0.00   0.00   0.00    -0.04   0.02   0.01    -0.02  -0.00   0.01
   2   8     0.00  -0.00  -0.01    -0.00   0.00   0.00     0.00  -0.00  -0.00
   3   8     0.02   0.01   0.03    -0.00  -0.00  -0.00    -0.00  -0.00  -0.00
   4   8     0.01  -0.00  -0.00     0.04  -0.06  -0.01    -0.05  -0.00   0.01
   5   6     0.01   0.01   0.01    -0.00  -0.00  -0.00    -0.00   0.00   0.00
   6   6    -0.00  -0.01   0.00    -0.00   0.02  -0.00     0.01  -0.01  -0.00
   7   6     0.03   0.05   0.26    -0.00  -0.00  -0.02    -0.00  -0.00  -0.00
   8   6     0.01  -0.01  -0.00     0.17  -0.10  -0.05    -0.04   0.31   0.02
   9   6    -0.00   0.01   0.00     0.02   0.20   0.00     0.35  -0.29  -0.10
  10   6    -0.01  -0.01   0.00    -0.18  -0.06   0.04     0.17  -0.16  -0.05
  11   6    -0.01  -0.01   0.00    -0.17  -0.08   0.04    -0.25   0.14   0.07
  12   6    -0.00   0.01   0.00     0.03   0.08  -0.01    -0.34   0.43   0.10
  13   6     0.01  -0.00  -0.00     0.09  -0.03  -0.02     0.09  -0.42  -0.04
  14   6     0.01   0.00  -0.01     0.17   0.02  -0.03     0.02   0.00  -0.00
  15   1    -0.01  -0.01   0.01     0.00   0.01   0.00    -0.00  -0.00  -0.00
  16   1     0.00   0.01  -0.02    -0.02  -0.02   0.03     0.00  -0.01   0.01
  17   1    -0.01   0.02   0.00     0.01  -0.04  -0.01    -0.00   0.00  -0.00
  18   1     0.11  -0.45  -0.51    -0.01   0.03   0.04     0.00   0.00   0.00
  19   1    -0.32   0.22  -0.54     0.02  -0.02   0.04     0.00  -0.00   0.00
  20   1     0.01   0.00  -0.00     0.12   0.04  -0.03     0.01  -0.05  -0.00
  21   1     0.01   0.00  -0.00     0.18   0.06  -0.05     0.05   0.08  -0.01
  22   1    -0.01   0.01   0.01     0.00  -0.01  -0.01    -0.00  -0.00   0.00
  23   1     0.01  -0.00  -0.00     0.06  -0.03  -0.02     0.11  -0.07  -0.03
  24   1     0.00   0.00  -0.00     0.04   0.04  -0.01     0.07   0.08  -0.01
  25   1     0.01   0.01   0.00    -0.00  -0.00  -0.00    -0.00   0.00  -0.00
  26   1     0.01  -0.01   0.01     0.13  -0.22  -0.04    -0.01   0.02  -0.00
  27   1    -0.04   0.02  -0.02    -0.53   0.08  -0.21    -0.00  -0.00  -0.00
  28   1    -0.04   0.00   0.04    -0.37   0.12   0.41    -0.00  -0.00   0.00
                     64                     65                     66
                        a                      a                      a 
 Frequencies --  1585.2873              2887.1469              2944.8783
 Red. masses --    11.5440                 1.7289                 1.9213
 Frc consts  --     0.0000                 0.0000                 0.0000
 IR Inten    --    61.0575                64.7483                50.8008
 Raman Activ --     0.0000                 0.0000                 0.0000
 Depolar     --     0.0000                 0.0000                 0.0000
 Atom AN      X      Y      Z        X      Y      Z        X      Y      Z
   1   8     0.02   0.01  -0.01     0.00   0.00  -0.00     0.01  -0.00   0.00
   2   8    -0.00  -0.00  -0.00    -0.00   0.00  -0.00    -0.00   0.00  -0.00
   3   8    -0.00  -0.00  -0.00     0.01   0.00   0.01     0.00   0.00   0.00
   4   8    -0.01  -0.00   0.00    -0.00  -0.00   0.00     0.00  -0.00   0.00
   5   6     0.00   0.00   0.00    -0.01   0.00  -0.01    -0.00   0.00  -0.01
   6   6     0.00  -0.01   0.01     0.00  -0.00  -0.00     0.13  -0.14  -0.21
   7   6    -0.00  -0.00  -0.00     0.13  -0.17   0.14    -0.01   0.01   0.00
   8   6    -0.25  -0.31   0.06    -0.00  -0.00  -0.00    -0.00  -0.00   0.00
   9   6     0.22   0.09  -0.05     0.00   0.00  -0.00     0.00   0.00  -0.00
  10   6     0.46   0.21  -0.11     0.00  -0.00  -0.00    -0.00   0.00   0.00
  11   6    -0.41  -0.22   0.09     0.00  -0.00   0.00    -0.00  -0.00   0.00
  12   6    -0.21  -0.10   0.05     0.00   0.00  -0.00     0.00   0.00  -0.00
  13   6     0.21   0.37  -0.04     0.00   0.00  -0.00     0.00   0.00  -0.00
  14   6     0.00  -0.01  -0.00     0.00  -0.00   0.00     0.00  -0.00   0.00
  15   1    -0.00  -0.00  -0.00     0.04  -0.04   0.05     0.02  -0.02   0.02
  16   1    -0.00   0.01  -0.02    -0.00   0.01   0.01    -0.31   0.67   0.49
  17   1    -0.00   0.01   0.01    -0.01  -0.00   0.01    -0.18  -0.15   0.26
  18   1     0.00   0.00   0.00    -0.52   0.55  -0.59     0.01  -0.01   0.01
  19   1     0.00  -0.00   0.00    -0.01   0.03   0.06     0.01  -0.03  -0.02
  20   1    -0.12  -0.03   0.03    -0.00   0.00   0.00     0.00   0.00   0.00
  21   1     0.10   0.02  -0.02    -0.00   0.00   0.00    -0.00   0.00  -0.00
  22   1    -0.00   0.01   0.01    -0.00   0.00   0.00     0.00   0.00   0.00
  23   1    -0.03  -0.05   0.01    -0.00  -0.00   0.00    -0.00  -0.00   0.00
  24   1     0.01  -0.10  -0.01    -0.00  -0.00   0.00    -0.00   0.00   0.00
  25   1     0.00   0.00  -0.00    -0.00   0.00   0.00     0.00   0.00  -0.00
  26   1    -0.00   0.00  -0.00     0.00   0.00  -0.00     0.00   0.00   0.00
  27   1    -0.01   0.00  -0.00     0.00  -0.00  -0.00     0.00  -0.00  -0.00
  28   1    -0.00   0.00   0.01    -0.00   0.00  -0.00    -0.01   0.00  -0.01
                     67                     68                     69
                        a                      a                      a 
 Frequencies --  2950.3592              2954.4308              2959.7152
 Red. masses --     1.5529                 1.8841                 1.7341
 Frc consts  --     0.0000                 0.0000                 0.0000
 IR Inten    --    18.0939                39.1079                92.0518
 Raman Activ --     0.0000                 0.0000                 0.0000
 Depolar     --     0.0000                 0.0000                 0.0000
 Atom AN      X      Y      Z        X      Y      Z        X      Y      Z
   1   8    -0.00   0.01  -0.01     0.00  -0.00   0.00    -0.00   0.00  -0.00
   2   8     0.00  -0.00  -0.00     0.00   0.00   0.00    -0.00   0.01   0.00
   3   8     0.00   0.00  -0.00    -0.00   0.00   0.00    -0.00  -0.00   0.00
   4   8     0.00   0.00   0.00    -0.00   0.01   0.01    -0.00   0.00  -0.00
   5   6     0.05  -0.04   0.05    -0.01   0.00  -0.01    -0.13   0.13  -0.16
   6   6     0.09   0.14  -0.12    -0.00  -0.00   0.01     0.02   0.06  -0.04
   7   6     0.00  -0.00   0.01    -0.00   0.00  -0.00    -0.01   0.01  -0.02
   8   6     0.00  -0.00   0.00     0.00   0.00   0.00     0.00  -0.00   0.00
   9   6    -0.00  -0.00   0.00    -0.00  -0.00  -0.00     0.00   0.00   0.00
  10   6     0.00  -0.00   0.00    -0.00   0.00   0.00     0.00  -0.00   0.00
  11   6     0.00   0.00  -0.00     0.00  -0.00  -0.00     0.00   0.00   0.00
  12   6    -0.00  -0.00  -0.00     0.00  -0.00  -0.00    -0.00  -0.00  -0.00
  13   6    -0.00  -0.00   0.00     0.00  -0.00   0.00    -0.00  -0.00   0.00
  14   6    -0.00   0.00   0.01    -0.01   0.03   0.28    -0.01   0.00  -0.01
  15   1    -0.17   0.18  -0.21     0.02  -0.02   0.02     0.49  -0.49   0.58
  16   1     0.14  -0.24  -0.21    -0.00   0.00   0.00     0.06  -0.11  -0.09
  17   1    -0.46  -0.29   0.66     0.02   0.01  -0.02    -0.16  -0.10   0.22
  18   1    -0.01   0.01  -0.01     0.00  -0.00   0.00     0.04  -0.04   0.04
  19   1     0.00  -0.00  -0.00    -0.00   0.00   0.00    -0.01   0.02   0.01
  20   1    -0.00   0.00   0.00     0.00  -0.00  -0.00    -0.00   0.00   0.00
  21   1     0.00  -0.00  -0.00    -0.00   0.01  -0.00     0.00  -0.00  -0.00
  22   1     0.00  -0.00   0.00    -0.00   0.00  -0.00    -0.01   0.01  -0.01
  23   1     0.00   0.00   0.00    -0.00  -0.00  -0.00     0.00   0.00  -0.00
  24   1     0.00  -0.00  -0.00    -0.00   0.00   0.00     0.00  -0.00  -0.00
  25   1    -0.00   0.00   0.00     0.00  -0.00  -0.00     0.00  -0.00  -0.00
  26   1    -0.00   0.00   0.00     0.01   0.01   0.04    -0.00  -0.00  -0.00
  27   1     0.01  -0.01  -0.04     0.30  -0.23  -0.80    -0.00   0.00   0.01
  28   1    -0.01   0.00  -0.00    -0.27   0.08  -0.22     0.03  -0.01   0.02
                     70                     71                     72
                        a                      a                      a 
 Frequencies --  2969.1288              2995.2660              3040.2034
 Red. masses --     1.5173                 1.6963                 1.7084
 Frc consts  --     0.0000                 0.0000                 0.0000
 IR Inten    --    38.6899                51.6848                14.4417
 Raman Activ --     0.0000                 0.0000                 0.0000
 Depolar     --     0.0000                 0.0000                 0.0000
 Atom AN      X      Y      Z        X      Y      Z        X      Y      Z
   1   8    -0.00  -0.00   0.00    -0.00   0.00  -0.00     0.00  -0.00  -0.00
   2   8     0.00  -0.00   0.00     0.00  -0.00   0.00    -0.00   0.00  -0.00
   3   8     0.00   0.00   0.00     0.01   0.00   0.00     0.00  -0.00  -0.00
   4   8    -0.01   0.02  -0.00    -0.00  -0.00  -0.00    -0.00  -0.01   0.00
   5   6     0.00  -0.00   0.00    -0.01   0.01  -0.00    -0.00   0.00   0.00
   6   6    -0.00  -0.00   0.00    -0.00   0.01   0.01    -0.00   0.00   0.00
   7   6    -0.00   0.00   0.00    -0.09   0.19   0.14    -0.00  -0.00  -0.00
   8   6     0.00   0.00  -0.00     0.00   0.00  -0.00    -0.00   0.00   0.00
   9   6    -0.00  -0.00   0.00     0.00   0.00  -0.00     0.00   0.00   0.00
  10   6    -0.00   0.00   0.00     0.00  -0.00  -0.00     0.00  -0.00  -0.00
  11   6     0.00  -0.00  -0.00    -0.00  -0.00  -0.00     0.00  -0.00  -0.00
  12   6     0.00  -0.00  -0.00     0.00   0.00  -0.00    -0.00  -0.00   0.00
  13   6     0.00  -0.00  -0.00     0.00  -0.00  -0.00    -0.00   0.00   0.00
  14   6    -0.19   0.06  -0.07     0.00  -0.00   0.00    -0.21  -0.12   0.05
  15   1    -0.01   0.01  -0.02     0.02  -0.02   0.02     0.00   0.00   0.00
  16   1    -0.01   0.01   0.01     0.01  -0.03  -0.02     0.00  -0.00  -0.00
  17   1     0.01   0.00  -0.01     0.00   0.00  -0.01    -0.00  -0.00   0.00
  18   1    -0.00   0.00  -0.00    -0.05   0.06  -0.02     0.00  -0.00   0.00
  19   1     0.00  -0.00  -0.00     0.36  -0.75  -0.48    -0.00   0.00   0.00
  20   1     0.00  -0.00  -0.00    -0.00   0.00   0.00    -0.00   0.00   0.00
  21   1     0.00   0.01   0.00    -0.00   0.00   0.00    -0.00   0.01   0.00
  22   1    -0.00   0.00  -0.00    -0.00   0.00  -0.00     0.00  -0.00   0.00
  23   1    -0.00  -0.00   0.00    -0.00  -0.00   0.00     0.00   0.00  -0.00
  24   1    -0.00   0.00   0.00    -0.00   0.00   0.00     0.00  -0.00  -0.00
  25   1     0.00   0.00   0.00    -0.01   0.01   0.01     0.00   0.00   0.00
  26   1    -0.02   0.01  -0.01     0.00   0.00  -0.00     0.82   0.47  -0.21
  27   1     0.09  -0.09  -0.36    -0.00   0.00   0.00    -0.04  -0.01   0.02
  28   1     0.62  -0.18   0.63    -0.00   0.00  -0.00    -0.03  -0.01   0.01
                     73                     74                     75
                        a                      a                      a 
 Frequencies --  3091.6595              3095.7995              3107.0710
 Red. masses --     1.7708                 1.8126                 1.8800
 Frc consts  --     0.0000                 0.0000                 0.0000
 IR Inten    --     9.4828                42.2166                80.4434
 Raman Activ --     0.0000                 0.0000                 0.0000
 Depolar     --     0.0000                 0.0000                 0.0000
 Atom AN      X      Y      Z        X      Y      Z        X      Y      Z
   1   8     0.00  -0.00  -0.00    -0.00   0.00   0.00     0.00   0.00  -0.00
   2   8    -0.00   0.00  -0.00    -0.00  -0.00  -0.00    -0.00   0.00  -0.00
   3   8     0.00  -0.00  -0.00    -0.00   0.00   0.00     0.00  -0.00  -0.00
   4   8     0.00   0.00  -0.00     0.00   0.00  -0.00     0.00   0.00  -0.00
   5   6    -0.00  -0.00  -0.00     0.00   0.00  -0.00    -0.00  -0.00  -0.00
   6   6     0.00   0.00  -0.00    -0.00  -0.00   0.00     0.00   0.00  -0.00
   7   6    -0.00   0.00   0.00     0.00   0.00  -0.00    -0.00  -0.00   0.00
   8   6    -0.01   0.00   0.00     0.01  -0.00  -0.00    -0.01  -0.00   0.00
   9   6     0.00  -0.00  -0.00    -0.00   0.00   0.00     0.00   0.00  -0.00
  10   6    -0.06   0.19   0.02     0.04  -0.14  -0.02    -0.03   0.11   0.01
  11   6    -0.00   0.01   0.00    -0.01   0.05   0.01    -0.03   0.10   0.01
  12   6    -0.10  -0.11   0.02    -0.04  -0.04   0.01     0.14   0.16  -0.03
  13   6     0.07  -0.02  -0.02     0.20  -0.05  -0.05     0.09  -0.02  -0.02
  14   6    -0.00  -0.00   0.00    -0.00   0.00   0.00    -0.00  -0.00   0.00
  15   1     0.00  -0.00   0.00    -0.00   0.00  -0.00     0.00  -0.00   0.00
  16   1     0.00  -0.00  -0.00    -0.00   0.00   0.00     0.00  -0.00  -0.00
  17   1    -0.00  -0.00   0.00     0.00   0.00  -0.00    -0.00  -0.00   0.00
  18   1    -0.00   0.00  -0.00     0.00  -0.00   0.00    -0.00   0.00   0.00
  19   1     0.00  -0.00  -0.00    -0.00   0.00   0.00     0.00  -0.00  -0.00
  20   1     0.21  -0.70  -0.09    -0.14   0.47   0.06     0.11  -0.35  -0.04
  21   1     0.01  -0.05  -0.01     0.06  -0.19  -0.02     0.12  -0.37  -0.05
  22   1     0.00  -0.00   0.00     0.00  -0.00   0.00     0.00  -0.00   0.00
  23   1     0.36   0.41  -0.08     0.14   0.16  -0.03    -0.47  -0.53   0.10
  24   1    -0.28   0.07   0.07    -0.73   0.17   0.19    -0.32   0.08   0.08
  25   1    -0.00   0.00   0.00     0.00  -0.00  -0.00    -0.00   0.00   0.00
  26   1     0.00   0.00  -0.00     0.00   0.00  -0.00     0.00   0.00  -0.00
  27   1    -0.00   0.00   0.00     0.00  -0.00  -0.00     0.00  -0.00  -0.00
  28   1    -0.00   0.00  -0.00     0.00  -0.00   0.00     0.00  -0.00   0.00
                     76                     77                     78
                        a                      a                      a 
 Frequencies --  3117.3143              3367.1903              3453.8537
 Red. masses --     1.8773                 1.8790                 1.8758
 Frc consts  --     0.0000                 0.0000                 0.0000
 IR Inten    --    34.8012               200.4007                93.1552
 Raman Activ --     0.0000                 0.0000                 0.0000
 Depolar     --     0.0000                 0.0000                 0.0000
 Atom AN      X      Y      Z        X      Y      Z        X      Y      Z
   1   8    -0.00   0.00   0.00     0.00   0.00   0.00    -0.00  -0.00  -0.00
   2   8    -0.00  -0.00   0.00    -0.15   0.12  -0.14     0.00  -0.00   0.00
   3   8    -0.00  -0.00   0.00    -0.00   0.00   0.00    -0.08   0.15   0.17
   4   8    -0.00   0.00   0.00     0.00  -0.00   0.00    -0.00  -0.00   0.00
   5   6     0.00  -0.00   0.00    -0.01   0.01  -0.00    -0.00  -0.00   0.00
   6   6     0.00  -0.00   0.00    -0.00  -0.00  -0.00    -0.00   0.00   0.00
   7   6     0.00   0.00   0.00    -0.00   0.00   0.00     0.00   0.01   0.01
   8   6     0.00  -0.00  -0.00     0.00   0.00   0.00    -0.00  -0.00   0.00
   9   6     0.01   0.01  -0.00    -0.00  -0.00   0.00     0.00   0.00  -0.00
  10   6     0.01  -0.03  -0.00    -0.00  -0.00  -0.00    -0.00   0.00  -0.00
  11   6    -0.07   0.23   0.03     0.00   0.00  -0.00    -0.00  -0.00   0.00
  12   6    -0.05  -0.06   0.01     0.00  -0.00  -0.00    -0.00   0.00  -0.00
  13   6    -0.10   0.03   0.03    -0.00   0.00   0.00     0.00   0.00  -0.00
  14   6    -0.00   0.00   0.00    -0.00   0.00   0.00     0.00   0.00  -0.00
  15   1    -0.00   0.00  -0.00     0.01  -0.01   0.01    -0.00   0.00  -0.00
  16   1    -0.00   0.00   0.00     0.00  -0.00  -0.00     0.00  -0.00  -0.00
  17   1     0.00   0.00  -0.00    -0.00   0.00  -0.00    -0.00  -0.00   0.00
  18   1    -0.00   0.00  -0.00    -0.00   0.00   0.00    -0.00   0.00  -0.00
  19   1     0.00  -0.00  -0.00     0.00  -0.00  -0.00     0.01  -0.01  -0.00
  20   1    -0.03   0.09   0.01    -0.00   0.00   0.00     0.00  -0.00  -0.00
  21   1     0.25  -0.81  -0.10    -0.00   0.00   0.00    -0.00  -0.00  -0.00
  22   1     0.00   0.00   0.00     0.62  -0.50   0.55    -0.01   0.01  -0.01
  23   1     0.16   0.18  -0.03     0.00   0.00  -0.00    -0.00  -0.00  -0.00
  24   1     0.33  -0.08  -0.09     0.00  -0.00  -0.00    -0.00  -0.00  -0.00
  25   1     0.00  -0.00  -0.00     0.00  -0.01  -0.01     0.30  -0.63  -0.67
  26   1     0.00   0.00  -0.00    -0.00   0.00  -0.00     0.00  -0.00  -0.00
  27   1     0.00  -0.00  -0.01     0.00  -0.00  -0.00    -0.00  -0.00   0.00
  28   1     0.01  -0.00   0.00     0.00  -0.00   0.00    -0.00   0.00   0.00
