28
 energy: -44.806032532128 gnorm: 0.000834556908 xtb: 6.4.1 (afa7bdf)
O         0.30054586751566   -0.89115835017641   -0.75830109801094
O         1.80253566077768    0.24044252113967    1.34555134929696
O         4.27842143317989    0.34555552829805   -0.06699953066324
O        -0.38251917867940    1.61572409596173   -0.33643070944278
C         2.27630941378415   -0.86548794121944    0.60803791233185
C         1.11014195096650   -1.71324528631087    0.07245154717068
C         3.16928101468428   -0.37841015705597   -0.54307203743528
C        -0.99261202815549   -0.64963875574612   -0.33982701940205
C        -1.37894081145593    0.69165080278713   -0.17125365438262
C        -1.90834902425117   -1.66662582215487   -0.13373752623162
C        -2.69282855382232    0.98011141205121    0.16529289447349
C        -3.21495809987612   -1.36634512874530    0.21737899864846
C        -3.60304927460581   -0.04814787159686    0.35692025691273
C        -0.73099298112607    2.98826824494191   -0.30239663734178
H         2.86994772154711   -1.45828013219914    1.31062088410196
H         1.49709052588770   -2.54102145344467   -0.52830869945381
H         0.52692971465757   -2.10574272947978    0.91025455483063
H         2.56345434394920    0.24227631685798   -1.21797553400264
H         3.56790296809052   -1.22637502066171   -1.10094708781859
H        -1.59388069608659   -2.69110406684456   -0.26165649346510
H        -3.01283466277133    2.00070383834466    0.29567384954658
H         1.17970507229838    0.73020948322613    0.77873448621205
H        -3.92351573935421   -2.16398803471663    0.37247824720407
H        -4.62024210623810    0.19230848889397    0.62260752013356
H         3.96022910579772    0.96727619458864    0.60600590331370
H         0.18597009830608    3.52418534632667   -0.53512005869045
H        -1.08627238263635    3.27932544758591    0.68921711987486
H        -1.49036530709770    3.21787081002558   -1.05293593232789
