      -----------------------------------------------------------      
     |                   =====================                   |     
     |                           x T B                           |     
     |                   =====================                   |     
     |                         S. Grimme                         |     
     |          Mulliken Center for Theoretical Chemistry        |     
     |                    University of Bonn                     |     
      -----------------------------------------------------------      

   * xtb version 6.4.1 (afa7bdf) compiled by 'ehlert@majestix' on 2021-06-10

   xtb is free software: you can redistribute it and/or modify it under
   the terms of the GNU Lesser General Public License as published by
   the Free Software Foundation, either version 3 of the License, or
   (at your option) any later version.
   
   xtb is distributed in the hope that it will be useful,
   but WITHOUT ANY WARRANTY; without even the implied warranty of
   MERCHANTABILITY or FITNESS FOR A PARTICULAR PURPOSE.  See the
   GNU Lesser General Public License for more details.
   
   Cite this work as:
   * C. Bannwarth, E. Caldeweyher, S. Ehlert, A. Hansen, P. Pracht,
     J. Seibert, S. Spicher, S. Grimme, WIREs Comput. Mol. Sci., 2020, 11,
     e01493. DOI: 10.1002/wcms.1493
   
   for GFN2-xTB:
   * C. Bannwarth, S. Ehlert and S. Grimme., J. Chem. Theory Comput., 2019,
     15, 1652-1671. DOI: 10.1021/acs.jctc.8b01176
   for GFN1-xTB:
   * S. Grimme, C. Bannwarth, P. Shushkov, J. Chem. Theory Comput., 2017,
     13, 1989-2009. DOI: 10.1021/acs.jctc.7b00118
   for GFN0-xTB:
   * P. Pracht, E. Caldeweyher, S. Ehlert, S. Grimme, ChemRxiv, 2019, preprint.
     DOI: 10.26434/chemrxiv.8326202.v1
   for GFN-FF:
   * S. Spicher and S. Grimme, Angew. Chem. Int. Ed., 2020, 59, 15665-15673.
     DOI: 10.1002/anie.202004239
   
   for DFT-D4:
   * E. Caldeweyher, C. Bannwarth and S. Grimme, J. Chem. Phys., 2017,
     147, 034112. DOI: 10.1063/1.4993215
   * E. Caldeweyher, S. Ehlert, A. Hansen, H. Neugebauer, S. Spicher,
     C. Bannwarth and S. Grimme, J. Chem. Phys., 2019, 150, 154122.
     DOI: 10.1063/1.5090222
   * E. Caldeweyher, J.-M. Mewes, S. Ehlert and S. Grimme, Phys. Chem. Chem. Phys.
     2020, 22, 8499-8512. DOI: 10.1039/D0CP00502A
   
   for sTDA-xTB:
   * S. Grimme and C. Bannwarth, J. Chem. Phys., 2016, 145, 054103.
     DOI: 10.1063/1.4959605
   
   in the mass-spec context:
   * V. Asgeirsson, C. Bauer and S. Grimme, Chem. Sci., 2017, 8, 4879.
     DOI: 10.1039/c7sc00601b
   * J. Koopman and S. Grimme, ACS Omega 2019, 4, 12, 15120-15133.
     DOI: 10.1021/acsomega.9b02011
   
   for metadynamics refer to:
   * S. Grimme, J. Chem. Theory Comput., 2019, 155, 2847-2862
     DOI: 10.1021/acs.jctc.9b00143
   
   for SPH calculations refer to:
   * S. Spicher and S. Grimme, J. Chem. Theory Comput., 2021, 17, 1701-1714
     DOI: 10.1021/acs.jctc.0c01306
   
   with help from (in alphabetical order)
   P. Atkinson, C. Bannwarth, F. Bohle, G. Brandenburg, E. Caldeweyher
   M. Checinski, S. Dohm, S. Ehlert, S. Ehrlich, I. Gerasimov, J. Koopman
   C. Lavigne, S. Lehtola, F. März, M. Müller, F. Musil, H. Neugebauer
   J. Pisarek, C. Plett, P. Pracht, J. Seibert, P. Shushkov, S. Spicher
   M. Stahn, M. Steiner, T. Strunk, J. Stückrath, T. Rose, and J. Unsleber
   
 * started run on 2021/11/15 at 09:23:09.807     

           -------------------------------------------------
          |                Calculation Setup                |
           -------------------------------------------------

          program call               : xtb 30_diphenylamine.xyz --gfn2 --chrg 0 --uhf 0 --alpb water -P 1
          coordinate file            : 30_diphenylamine.xyz
          omp threads                :                     1
          number of atoms            :                    24
          number of electrons        :                    64
          charge                     :                     0
          spin                       :                   0.0
          first test random number   :      0.93418393908331

   ID    Z sym.   atoms
    1    6 C      1-6, 14-17, 19, 21
    2    1 H      7-11, 13, 18, 20, 22-24
    3    7 N      12

           -------------------------------------------------
          |                 G F N 2 - x T B                 |
           -------------------------------------------------

        Reference                      10.1021/acs.jctc.8b01176
      * Hamiltonian:
        H0-scaling (s, p, d)           1.850000    2.230000    2.230000
        zeta-weighting                 0.500000
      * Dispersion:
        s8                             2.700000
        a1                             0.520000
        a2                             5.000000
        s9                             5.000000
      * Repulsion:
        kExp                           1.500000    1.000000
        rExp                           1.000000
      * Coulomb:
        alpha                          2.000000
        third order                    shell-resolved
        anisotropic                    true
        a3                             3.000000
        a5                             4.000000
        cn-shift                       1.200000
        cn-exp                         4.000000
        max-rad                        5.000000

      * Solvation model:               ALPB
        Solvent                        water
        Parameter file                 internal GFN2-xTB/ALPB
        Dielectric constant                8.0200E+01
        Reference state                gsolv [1 M gas/solution]
        Free energy shift                  1.0808E-03 Eh       6.7819E-01 kcal/mol
        Temperature                        2.9815E+02 K
        Density                            1.0000E+00 kg/L
        Solvent mass                       1.8000E+01 g/mol
        Interaction kernel             P16
        Born radius scaling (c1)           1.4744E+00
        Born radii integrator          GBOBC
        Born offset                        0.0000E+00 a0       0.0000E+00 AA
        H-bond correction              true
        Ion screening                  false
        Surface tension                    1.0000E-05 Eh       1.5569E+01 dyn/cm
        Grid points                               230 per atom
q/qsh data taken from xtbrestart
CAMM data taken from xtbrestart

          ...................................................
          :                      SETUP                      :
          :.................................................:
          :  # basis functions                  63          :
          :  # atomic orbitals                  63          :
          :  # shells                           37          :
          :  # electrons                        64          :
          :  max. iterations                   250          :
          :  Hamiltonian                  GFN2-xTB          :
          :  restarted?                       true          :
          :  GBSA solvation                   true          :
          :  PC potential                    false          :
          :  electronic temp.          300.0000000     K    :
          :  accuracy                    1.0000000          :
          :  -> integral cutoff          0.2500000E+02      :
          :  -> integral neglect         0.1000000E-07      :
          :  -> SCF convergence          0.1000000E-05 Eh   :
          :  -> wf. convergence          0.1000000E-03 e    :
          :  Broyden damping             0.4000000          :
          ...................................................

 iter      E             dE          RMSdq      gap      omega  full diag
   1    -34.8237832 -0.348238E+02  0.157E-04    3.37       0.0  T
   2    -34.8237832 -0.539231E-10  0.108E-04    3.37     188.8  T
   3    -34.8237832 -0.229718E-10  0.558E-05    3.37     365.7  T

   *** convergence criteria satisfied after 3 iterations ***

         #    Occupation            Energy/Eh            Energy/eV
      -------------------------------------------------------------
         1        2.0000           -0.6504359             -17.6993
       ...           ...                  ...                  ...
        26        2.0000           -0.4267546             -11.6126
        27        2.0000           -0.4190127             -11.4019
        28        2.0000           -0.4144117             -11.2767
        29        2.0000           -0.3988547             -10.8534
        30        2.0000           -0.3978181             -10.8252
        31        2.0000           -0.3971228             -10.8063
        32        2.0000           -0.3490186              -9.4973 (HOMO)
        33                         -0.2251850              -6.1276 (LUMO)
        34                         -0.2193580              -5.9690
        35                         -0.2189905              -5.9590
        36                         -0.1935968              -5.2680
        37                         -0.0955869              -2.6011
       ...                                ...                  ...
        63                          0.6640407              18.0695
      -------------------------------------------------------------
                  HL-Gap            0.1238336 Eh            3.3697 eV
             Fermi-level           -0.2871018 Eh           -7.8124 eV

 SCC (total)                   0 d,  0 h,  0 min,  0.013 sec
 SCC setup                      ...        0 min,  0.001 sec (  6.712%)
 Dispersion                     ...        0 min,  0.000 sec (  2.487%)
 classical contributions        ...        0 min,  0.000 sec (  0.308%)
 integral evaluation            ...        0 min,  0.003 sec ( 20.330%)
 iterations                     ...        0 min,  0.003 sec ( 25.800%)
 molecular gradient             ...        0 min,  0.006 sec ( 42.394%)
 printout                       ...        0 min,  0.000 sec (  1.729%)

         :::::::::::::::::::::::::::::::::::::::::::::::::::::
         ::                     SUMMARY                     ::
         :::::::::::::::::::::::::::::::::::::::::::::::::::::
         :: total energy             -34.209643018968 Eh    ::
         :: total w/o Gsasa/hb       -34.206703209874 Eh    ::
         :: gradient norm              0.023956397678 Eh/a0 ::
         :: HOMO-LUMO gap              3.369684780413 eV    ::
         ::.................................................::
         :: SCC energy               -34.823783232386 Eh    ::
         :: -> isotropic ES            0.008539272779 Eh    ::
         :: -> anisotropic ES          0.006511041740 Eh    ::
         :: -> anisotropic XC          0.022662263702 Eh    ::
         :: -> dispersion             -0.022491942632 Eh    ::
         :: -> Gsolv                  -0.004364681898 Eh    ::
         ::    -> Gelec               -0.001424872803 Eh    ::
         ::    -> Gsasa               -0.002820431317 Eh    ::
         ::    -> Ghb                 -0.001200137476 Eh    ::
         ::    -> Gshift               0.001080759698 Eh    ::
         :: repulsion energy           0.614208570351 Eh    ::
         :: add. restraining           0.000000000000 Eh    ::
         :: total charge              -0.000000000000 e     ::
         :::::::::::::::::::::::::::::::::::::::::::::::::::::

           -------------------------------------------------
          |                Property Printout                |
           -------------------------------------------------

    * Orbital Energies and Occupations

         #    Occupation            Energy/Eh            Energy/eV
      -------------------------------------------------------------
         1        2.0000           -0.6504359             -17.6993
       ...           ...                  ...                  ...
        20        2.0000           -0.4744487             -12.9104
        21        2.0000           -0.4729777             -12.8704
        22        2.0000           -0.4676721             -12.7260
        23        2.0000           -0.4662792             -12.6881
        24        2.0000           -0.4413610             -12.0100
        25        2.0000           -0.4356210             -11.8539
        26        2.0000           -0.4267546             -11.6126
        27        2.0000           -0.4190127             -11.4019
        28        2.0000           -0.4144117             -11.2767
        29        2.0000           -0.3988547             -10.8534
        30        2.0000           -0.3978181             -10.8252
        31        2.0000           -0.3971228             -10.8063
        32        2.0000           -0.3490186              -9.4973 (HOMO)
        33                         -0.2251850              -6.1276 (LUMO)
        34                         -0.2193580              -5.9690
        35                         -0.2189905              -5.9590
        36                         -0.1935968              -5.2680
        37                         -0.0955869              -2.6011
        38                         -0.0799520              -2.1756
        39                          0.0117443               0.3196
        40                          0.1044394               2.8419
        41                          0.1267344               3.4486
        42                          0.1316255               3.5817
        43                          0.1338405               3.6420
       ...                                ...                  ...
        63                          0.6640407              18.0695
      -------------------------------------------------------------
                  HL-Gap            0.1238336 Eh            3.3697 eV
             Fermi-level           -0.2871018 Eh           -7.8124 eV

     #   Z          covCN         q      C6AA      α(0)
     1   6 C        2.913    -0.035    28.883     8.813
     2   6 C        2.918    -0.063    29.576     8.918
     3   6 C        2.895     0.069    26.453     8.433
     4   6 C        2.913    -0.058    29.450     8.899
     5   6 C        2.914    -0.036    28.905     8.816
     6   6 C        2.910    -0.049    29.219     8.864
     7   1 H        0.925     0.032     2.559     2.502
     8   1 H        0.925     0.033     2.547     2.496
     9   1 H        0.925     0.037     2.485     2.465
    10   1 H        0.925     0.031     2.579     2.511
    11   1 H        0.925     0.028     2.611     2.527
    12   7 N        2.696    -0.166    24.596     7.366
    13   1 H        0.860     0.192     1.149     1.679
    14   6 C        2.895     0.069    26.453     8.433
    15   6 C        2.913    -0.058    29.450     8.899
    16   6 C        2.918    -0.063    29.576     8.918
    17   6 C        2.914    -0.036    28.905     8.816
    18   1 H        0.925     0.037     2.485     2.465
    19   6 C        2.913    -0.035    28.883     8.813
    20   1 H        0.925     0.033     2.548     2.496
    21   6 C        2.910    -0.049    29.219     8.864
    22   1 H        0.925     0.031     2.579     2.511
    23   1 H        0.925     0.032     2.559     2.502
    24   1 H        0.925     0.028     2.611     2.527

 Mol. C6AA /au·bohr⁶  :       7449.058996
 Mol. C8AA /au·bohr⁸  :     183519.862726
 Mol. α(0) /au        :        139.530623


Wiberg/Mayer (AO) data.
largest (>0.10) Wiberg bond orders for each atom

 ---------------------------------------------------------------------------
     #   Z sym  total        # sym  WBO       # sym  WBO       # sym  WBO
 ---------------------------------------------------------------------------
     1   6 C    3.991 --     2 C    1.467     6 C    1.421     7 H    0.971
                             4 C    0.103
     2   6 C    3.982 --     1 C    1.467     3 C    1.345     8 H    0.968
                             5 C    0.104
     3   6 C    3.969 --     4 C    1.355     2 C    1.345    12 N    1.121
     4   6 C    3.983 --     5 C    1.453     3 C    1.355     9 H    0.966
                             1 C    0.103
     5   6 C    3.991 --     4 C    1.453     6 C    1.433    10 H    0.971
                             2 C    0.104
     6   6 C    3.976 --     5 C    1.433     1 C    1.421    11 H    0.972
     7   1 H    0.998 --     1 C    0.971
     8   1 H    0.999 --     2 C    0.968
     9   1 H    0.999 --     4 C    0.966
    10   1 H    0.999 --     5 C    0.971
    11   1 H    0.999 --     6 C    0.972
    12   7 N    3.442 --     3 C    1.121    14 C    1.121    13 H    0.928
    13   1 H    0.962 --    12 N    0.928
    14   6 C    3.969 --    15 C    1.355    16 C    1.345    12 N    1.121
    15   6 C    3.983 --    17 C    1.453    14 C    1.355    18 H    0.966
                            19 C    0.103
    16   6 C    3.982 --    19 C    1.467    14 C    1.345    20 H    0.968
                            17 C    0.104
    17   6 C    3.991 --    15 C    1.453    21 C    1.433    22 H    0.971
                            16 C    0.104
    18   1 H    0.999 --    15 C    0.966
    19   6 C    3.991 --    16 C    1.467    21 C    1.421    23 H    0.971
                            15 C    0.103
    20   1 H    0.999 --    16 C    0.968
    21   6 C    3.976 --    17 C    1.433    19 C    1.421    24 H    0.972
    22   1 H    0.999 --    17 C    0.971
    23   1 H    0.998 --    19 C    0.971
    24   1 H    0.999 --    21 C    0.972
 ---------------------------------------------------------------------------

Topologies differ in total number of bonds
Writing topology from bond orders to xtbtopo.mol

molecular dipole:
                 x           y           z       tot (Debye)
 q only:        0.000      -0.479       0.000
   full:        0.000      -0.554      -0.000       1.409
molecular quadrupole (traceless):
                xx          xy          yy          xz          yz          zz
 q only:       -3.063       0.001       4.429      -0.385       0.000      -1.366
  q+dip:       -0.568       0.001       8.350      -1.613       0.001      -7.782
   full:       -2.673       0.001       6.446      -0.790       0.001      -3.772


           -------------------------------------------------
          | TOTAL ENERGY              -34.209643018968 Eh   |
          | GRADIENT NORM               0.023956397678 Eh/α |
          | HOMO-LUMO GAP               3.369684780413 eV   |
           -------------------------------------------------

------------------------------------------------------------------------
 * finished run on 2021/11/15 at 09:23:09.848     
------------------------------------------------------------------------
 total:
 * wall-time:     0 d,  0 h,  0 min,  0.040 sec
 *  cpu-time:     0 d,  0 h,  0 min,  0.016 sec
 * ratio c/w:     0.386 speedup
 SCF:
 * wall-time:     0 d,  0 h,  0 min,  0.014 sec
 *  cpu-time:     0 d,  0 h,  0 min,  0.016 sec
 * ratio c/w:     1.148 speedup

