      -----------------------------------------------------------      
     |                   =====================                   |     
     |                           x T B                           |     
     |                   =====================                   |     
     |                         S. Grimme                         |     
     |          Mulliken Center for Theoretical Chemistry        |     
     |                    University of Bonn                     |     
      -----------------------------------------------------------      

   * xtb version 6.4.1 (afa7bdf) compiled by 'ehlert@majestix' on 2021-06-10

   xtb is free software: you can redistribute it and/or modify it under
   the terms of the GNU Lesser General Public License as published by
   the Free Software Foundation, either version 3 of the License, or
   (at your option) any later version.
   
   xtb is distributed in the hope that it will be useful,
   but WITHOUT ANY WARRANTY; without even the implied warranty of
   MERCHANTABILITY or FITNESS FOR A PARTICULAR PURPOSE.  See the
   GNU Lesser General Public License for more details.
   
   Cite this work as:
   * C. Bannwarth, E. Caldeweyher, S. Ehlert, A. Hansen, P. Pracht,
     J. Seibert, S. Spicher, S. Grimme, WIREs Comput. Mol. Sci., 2020, 11,
     e01493. DOI: 10.1002/wcms.1493
   
   for GFN2-xTB:
   * C. Bannwarth, S. Ehlert and S. Grimme., J. Chem. Theory Comput., 2019,
     15, 1652-1671. DOI: 10.1021/acs.jctc.8b01176
   for GFN1-xTB:
   * S. Grimme, C. Bannwarth, P. Shushkov, J. Chem. Theory Comput., 2017,
     13, 1989-2009. DOI: 10.1021/acs.jctc.7b00118
   for GFN0-xTB:
   * P. Pracht, E. Caldeweyher, S. Ehlert, S. Grimme, ChemRxiv, 2019, preprint.
     DOI: 10.26434/chemrxiv.8326202.v1
   for GFN-FF:
   * S. Spicher and S. Grimme, Angew. Chem. Int. Ed., 2020, 59, 15665-15673.
     DOI: 10.1002/anie.202004239
   
   for DFT-D4:
   * E. Caldeweyher, C. Bannwarth and S. Grimme, J. Chem. Phys., 2017,
     147, 034112. DOI: 10.1063/1.4993215
   * E. Caldeweyher, S. Ehlert, A. Hansen, H. Neugebauer, S. Spicher,
     C. Bannwarth and S. Grimme, J. Chem. Phys., 2019, 150, 154122.
     DOI: 10.1063/1.5090222
   * E. Caldeweyher, J.-M. Mewes, S. Ehlert and S. Grimme, Phys. Chem. Chem. Phys.
     2020, 22, 8499-8512. DOI: 10.1039/D0CP00502A
   
   for sTDA-xTB:
   * S. Grimme and C. Bannwarth, J. Chem. Phys., 2016, 145, 054103.
     DOI: 10.1063/1.4959605
   
   in the mass-spec context:
   * V. Asgeirsson, C. Bauer and S. Grimme, Chem. Sci., 2017, 8, 4879.
     DOI: 10.1039/c7sc00601b
   * J. Koopman and S. Grimme, ACS Omega 2019, 4, 12, 15120-15133.
     DOI: 10.1021/acsomega.9b02011
   
   for metadynamics refer to:
   * S. Grimme, J. Chem. Theory Comput., 2019, 155, 2847-2862
     DOI: 10.1021/acs.jctc.9b00143
   
   for SPH calculations refer to:
   * S. Spicher and S. Grimme, J. Chem. Theory Comput., 2021, 17, 1701-1714
     DOI: 10.1021/acs.jctc.0c01306
   
   with help from (in alphabetical order)
   P. Atkinson, C. Bannwarth, F. Bohle, G. Brandenburg, E. Caldeweyher
   M. Checinski, S. Dohm, S. Ehlert, S. Ehrlich, I. Gerasimov, J. Koopman
   C. Lavigne, S. Lehtola, F. März, M. Müller, F. Musil, H. Neugebauer
   J. Pisarek, C. Plett, P. Pracht, J. Seibert, P. Shushkov, S. Spicher
   M. Stahn, M. Steiner, T. Strunk, J. Stückrath, T. Rose, and J. Unsleber
   
 * started run on 2021/11/15 at 09:36:22.599     

           -------------------------------------------------
          |                Calculation Setup                |
           -------------------------------------------------

          program call               : xtb 35_1,3-dimethoxybenzene.xyz --gfn2 --chrg 0 --uhf 0 --alpb water --ohess -P 1
          coordinate file            : 35_1,3-dimethoxybenzene.xyz
          omp threads                :                     1
          number of atoms            :                    20
          number of electrons        :                    54
          charge                     :                     0
          spin                       :                   0.0
          first test random number   :      0.90247469195646

   ID    Z sym.   atoms
    1    6 C      1-6, 10, 16
    2    1 H      7, 8, 11-14, 17-20
    3    8 O      9, 15

           -------------------------------------------------
          |                 G F N 2 - x T B                 |
           -------------------------------------------------

        Reference                      10.1021/acs.jctc.8b01176
      * Hamiltonian:
        H0-scaling (s, p, d)           1.850000    2.230000    2.230000
        zeta-weighting                 0.500000
      * Dispersion:
        s8                             2.700000
        a1                             0.520000
        a2                             5.000000
        s9                             5.000000
      * Repulsion:
        kExp                           1.500000    1.000000
        rExp                           1.000000
      * Coulomb:
        alpha                          2.000000
        third order                    shell-resolved
        anisotropic                    true
        a3                             3.000000
        a5                             4.000000
        cn-shift                       1.200000
        cn-exp                         4.000000
        max-rad                        5.000000

      * Solvation model:               ALPB
        Solvent                        water
        Parameter file                 internal GFN2-xTB/ALPB
        Dielectric constant                8.0200E+01
        Reference state                gsolv [1 M gas/solution]
        Free energy shift                  1.0808E-03 Eh       6.7819E-01 kcal/mol
        Temperature                        2.9815E+02 K
        Density                            1.0000E+00 kg/L
        Solvent mass                       1.8000E+01 g/mol
        Interaction kernel             P16
        Born radius scaling (c1)           1.4744E+00
        Born radii integrator          GBOBC
        Born offset                        0.0000E+00 a0       0.0000E+00 AA
        H-bond correction              true
        Ion screening                  false
        Surface tension                    1.0000E-05 Eh       1.5569E+01 dyn/cm
        Grid points                               230 per atom

          ...................................................
          :                      SETUP                      :
          :.................................................:
          :  # basis functions                  50          :
          :  # atomic orbitals                  50          :
          :  # shells                           30          :
          :  # electrons                        54          :
          :  max. iterations                   250          :
          :  Hamiltonian                  GFN2-xTB          :
          :  restarted?                      false          :
          :  GBSA solvation                   true          :
          :  PC potential                    false          :
          :  electronic temp.          300.0000000     K    :
          :  accuracy                    1.0000000          :
          :  -> integral cutoff          0.2500000E+02      :
          :  -> integral neglect         0.1000000E-07      :
          :  -> SCF convergence          0.1000000E-05 Eh   :
          :  -> wf. convergence          0.1000000E-03 e    :
          :  Broyden damping             0.4000000          :
          ...................................................

 iter      E             dE          RMSdq      gap      omega  full diag
   1    -30.7055434 -0.307055E+02  0.491E+00    4.25       0.0  T
   2    -30.7415825 -0.360391E-01  0.277E+00    4.17       1.0  T
   3    -30.7369509  0.463155E-02  0.123E+00    4.16       1.0  T
   4    -30.7464167 -0.946577E-02  0.313E-01    4.14       1.0  T
   5    -30.7468807 -0.464023E-03  0.853E-02    4.17       1.0  T
   6    -30.7468807  0.320437E-08  0.422E-02    4.16       1.0  T
   7    -30.7468883 -0.754664E-05  0.967E-03    4.17       2.3  T
   8    -30.7468886 -0.364289E-06  0.333E-03    4.17       6.7  T
   9    -30.7468886 -0.120791E-07  0.101E-03    4.17      22.2  T
  10    -30.7468886 -0.101486E-07  0.473E-04    4.17      47.3  T
  11    -30.7468886 -0.678572E-09  0.159E-04    4.17     140.5  T

   *** convergence criteria satisfied after 11 iterations ***

         #    Occupation            Energy/Eh            Energy/eV
      -------------------------------------------------------------
         1        2.0000           -0.7157772             -19.4773
       ...           ...                  ...                  ...
        21        2.0000           -0.4621621             -12.5761
        22        2.0000           -0.4592277             -12.4962
        23        2.0000           -0.4389258             -11.9438
        24        2.0000           -0.4330906             -11.7850
        25        2.0000           -0.4258930             -11.5891
        26        2.0000           -0.3883190             -10.5667
        27        2.0000           -0.3743642             -10.1870 (HOMO)
        28                         -0.2211694              -6.0183 (LUMO)
        29                         -0.2111713              -5.7463
        30                         -0.0906846              -2.4677
        31                          0.0103266               0.2810
        32                          0.0267622               0.7282
       ...                                ...                  ...
        50                          0.6556192              17.8403
      -------------------------------------------------------------
                  HL-Gap            0.1531949 Eh            4.1686 eV
             Fermi-level           -0.2977668 Eh           -8.1026 eV

 SCC (total)                   0 d,  0 h,  0 min,  0.013 sec
 SCC setup                      ...        0 min,  0.000 sec (  3.668%)
 Dispersion                     ...        0 min,  0.000 sec (  1.053%)
 classical contributions        ...        0 min,  0.000 sec (  0.211%)
 integral evaluation            ...        0 min,  0.002 sec ( 15.393%)
 iterations                     ...        0 min,  0.006 sec ( 44.283%)
 molecular gradient             ...        0 min,  0.004 sec ( 34.013%)
 printout                       ...        0 min,  0.000 sec (  1.220%)

         :::::::::::::::::::::::::::::::::::::::::::::::::::::
         ::                     SUMMARY                     ::
         :::::::::::::::::::::::::::::::::::::::::::::::::::::
         :: total energy             -30.350013070562 Eh    ::
         :: total w/o Gsasa/hb       -30.349667006890 Eh    ::
         :: gradient norm              0.019884260210 Eh/a0 ::
         :: HOMO-LUMO gap              4.168644347666 eV    ::
         ::.................................................::
         :: SCC energy               -30.746888640248 Eh    ::
         :: -> isotropic ES            0.037199800275 Eh    ::
         :: -> anisotropic ES          0.003951108569 Eh    ::
         :: -> anisotropic XC          0.009564909677 Eh    ::
         :: -> dispersion             -0.015034300352 Eh    ::
         :: -> Gsolv                  -0.005416152657 Eh    ::
         ::    -> Gelec               -0.005070088985 Eh    ::
         ::    -> Gsasa                0.000093695402 Eh    ::
         ::    -> Ghb                 -0.001520518772 Eh    ::
         ::    -> Gshift               0.001080759698 Eh    ::
         :: repulsion energy           0.396866415588 Eh    ::
         :: add. restraining           0.000000000000 Eh    ::
         :: total charge              -0.000000000000 e     ::
         :::::::::::::::::::::::::::::::::::::::::::::::::::::

      ----------------------------------------------------------- 
     |                   =====================                   |
     |                        A N C O P T                        |
     |                   =====================                   |
     |               Approximate Normal Coordinate               |
     |                Rational Function Optimizer                |
      ----------------------------------------------------------- 

          ...................................................
          :                      SETUP                      :
          :.................................................:
          :   optimization level            normal          :
          :   max. optcycles                   200          :
          :   ANC micro-cycles                  20          :
          :   degrees of freedom                54          :
          :.................................................:
          :   RF solver                   davidson          :
          :   write xtbopt.log                true          :
          :   linear?                        false          :
          :   energy convergence         0.5000000E-05 Eh   :
          :   grad. convergence          0.1000000E-02 Eh/α :
          :   maximium RF displ.         1.0000000          :
          :   Hlow (freq-cutoff)         0.1000000E-01      :
          :   Hmax (freq-cutoff)         5.0000000          :
          :   S6 in model hess.         20.0000000          :
          ...................................................

generating ANC from model Hessian ...
Using Lindh-Hessian (1995)
 Shifting diagonal of input Hessian by   7.888025767769376E-003
 Lowest  eigenvalues of input Hessian
    0.000000    0.000000    0.000000    0.000000    0.000000    0.000000
    0.010000    0.011067    0.012975    0.013105    0.013824    0.018021
    0.023364    0.026724    0.033619    0.040987    0.042143    0.049343
 Highest eigenvalues
    1.537219    1.740196    1.761809    1.880148    2.033190    2.091673
 

........................................................................
.............................. CYCLE    1 ..............................
........................................................................
   1    -30.7468886 -0.307469E+02  0.693E-05    4.17       0.0  T
   2    -30.7468886 -0.160796E-10  0.454E-05    4.17     492.1  T
   3    -30.7468886 -0.381917E-11  0.298E-05    4.17     749.7  T
     SCC iter.                  ...        0 min,  0.002 sec
     gradient                   ...        0 min,  0.004 sec
 * total energy  :   -30.3500131 Eh     change       -0.1557048E-09 Eh
   gradient norm :     0.0198848 Eh/α   predicted     0.0000000E+00 (-100.00%)
   displ. norm   :     0.1012875 α      lambda       -0.1313547E-02
   maximum displ.:     0.0604344 α      in ANC's #12, #32, #6, ...

........................................................................
.............................. CYCLE    2 ..............................
........................................................................
   1    -30.7609961 -0.307610E+02  0.103E-01    4.23       0.0  T
   2    -30.7609976 -0.149642E-05  0.613E-02    4.23       1.0  T
   3    -30.7609964  0.120916E-05  0.128E-02    4.23       1.7  T
   4    -30.7609983 -0.189294E-05  0.266E-03    4.23       8.4  T
   5    -30.7609983 -0.135687E-07  0.139E-03    4.23      16.1  T
   6    -30.7609983 -0.605286E-08  0.710E-04    4.23      31.5  T
   7    -30.7609983 -0.187861E-08  0.313E-04    4.23      71.6  T
     SCC iter.                  ...        0 min,  0.005 sec
     gradient                   ...        0 min,  0.006 sec
 * total energy  :   -30.3508083 Eh     change       -0.7952114E-03 Eh
   gradient norm :     0.0053798 Eh/α   predicted    -0.6635120E-03 ( -16.56%)
   displ. norm   :     0.0402877 α      lambda       -0.9864762E-04
   maximum displ.:     0.0274136 α      in ANC's #6, #12, #32, ...

........................................................................
.............................. CYCLE    3 ..............................
........................................................................
   1    -30.7643973 -0.307644E+02  0.344E-02    4.24       0.0  T
   2    -30.7643977 -0.419609E-06  0.203E-02    4.24       1.1  T
   3    -30.7643974  0.315510E-06  0.703E-03    4.24       3.2  T
   4    -30.7643979 -0.461649E-06  0.113E-03    4.24      19.7  T
   5    -30.7643979 -0.409813E-08  0.583E-04    4.24      38.3  T
   6    -30.7643979 -0.109863E-08  0.325E-04    4.24      68.9  T
     SCC iter.                  ...        0 min,  0.004 sec
     gradient                   ...        0 min,  0.004 sec
 * total energy  :   -30.3508639 Eh     change       -0.5562509E-04 Eh
   gradient norm :     0.0019942 Eh/α   predicted    -0.4959706E-04 ( -10.84%)
   displ. norm   :     0.0220460 α      lambda       -0.7621719E-05
   maximum displ.:     0.0197338 α      in ANC's #6, #12, #13, ...

........................................................................
.............................. CYCLE    4 ..............................
........................................................................
   1    -30.7643571 -0.307644E+02  0.145E-02    4.23       0.0  T
   2    -30.7643574 -0.233551E-06  0.862E-03    4.23       2.6  T
   3    -30.7643573  0.492226E-07  0.404E-03    4.23       5.5  T
   4    -30.7643574 -0.105766E-06  0.669E-04    4.23      33.4  T
   5    -30.7643574 -0.241700E-08  0.276E-04    4.23      81.1  T
     SCC iter.                  ...        0 min,  0.003 sec
     gradient                   ...        0 min,  0.004 sec
 * total energy  :   -30.3508699 Eh     change       -0.6033690E-05 Eh
   gradient norm :     0.0007086 Eh/α   predicted    -0.3912084E-05 ( -35.16%)
   displ. norm   :     0.0032947 α      lambda       -0.7957123E-06
   maximum displ.:     0.0019328 α      in ANC's #6, #32, #14, ...

........................................................................
.............................. CYCLE    5 ..............................
........................................................................
   1    -30.7639303 -0.307639E+02  0.363E-03    4.23       0.0  T
   2    -30.7639303 -0.577697E-08  0.217E-03    4.23      10.3  T
   3    -30.7639303  0.465920E-08  0.782E-04    4.23      28.6  T
   4    -30.7639303 -0.649522E-08  0.980E-05    4.23     228.1  T
     SCC iter.                  ...        0 min,  0.002 sec
     gradient                   ...        0 min,  0.004 sec
 * total energy  :   -30.3508705 Eh     change       -0.5614324E-06 Eh
   gradient norm :     0.0002160 Eh/α   predicted    -0.4030511E-06 ( -28.21%)
   displ. norm   :     0.0008674 α      lambda       -0.5109542E-08
   maximum displ.:     0.0006685 α      in ANC's #12, #13, #32, ...

   *** GEOMETRY OPTIMIZATION CONVERGED AFTER 5 ITERATIONS ***

------------------------------------------------------------------------
 total energy gain   :        -0.0008574 Eh       -0.5380 kcal/mol
 total RMSD          :         0.0345611 a0        0.0183 Å
 total power (kW/mol):        -0.4502374 (step)  -41.7335 (real)
------------------------------------------------------------------------

 ANCopt (total)                0 d,  0 h,  0 min,  0.054 sec
 optimizer setup                ...        0 min,  0.000 sec (  0.346%)
 model hessian                  ...        0 min,  0.002 sec (  4.498%)
 ANC generation                 ...        0 min,  0.000 sec (  0.776%)
 coordinate transformation      ...        0 min,  0.000 sec (  0.080%)
 single point calculation       ...        0 min,  0.049 sec ( 90.804%)
 optimization log               ...        0 min,  0.001 sec (  2.211%)
 hessian update                 ...        0 min,  0.000 sec (  0.076%)
 rational function              ...        0 min,  0.000 sec (  0.564%)

================
 final structure:
================
20
 xtb: 6.4.1 (afa7bdf)
C        -1.33979612428702    1.15994697140367   -0.00000000000005
C        -1.05771198840567   -0.19851952558896   -0.00000000000002
C         0.26677546544285   -0.64024331396485   -0.00000000000001
C         1.30561229221930    0.27523253481074   -0.00000000000003
C         1.02007129897661    1.64337544128878   -0.00000000000001
C        -0.28978652862535    2.06721479127179   -0.00000000000000
H         1.84118270948749    2.34122725780378    0.00000000000004
H        -0.50755311062842    3.12394027781340    0.00000000000005
O         2.62834533041988   -0.05497028893780    0.00000000000001
C         2.98675278092793   -1.42390828477258   -0.00000000000001
H         2.61277499932556   -1.92942730355967   -0.89398230012569
H         4.07428419474890   -1.43415054594158    0.00000000000003
H         2.61277499932551   -1.92942730355971    0.89398230012563
H        -2.35407226541892    1.52220064985002    0.00000000000000
O        -1.99385859803416   -1.19273287109584    0.00000000000004
C        -3.36275238230446   -0.83330692064115   -0.00000000000000
H        -3.62017568767706   -0.26027105936262   -0.89441749952796
H        -3.90544761086794   -1.77586280710002    0.00000000000008
H        -3.62017568767708   -0.26027105936251    0.89441749952788
H         0.43371491305205   -1.70456764035488    0.00000000000002
 
 Bond Distances (Angstroems)
 ---------------------------
C1-C2=1.3874         C1-C6=1.3877         C1-H14=1.0770        C2-C1=1.3874         C2-C3=1.3962         C2-O15=1.3656        
C3-C2=1.3962         C3-C4=1.3847         C3-H20=1.0773        C4-C3=1.3847         C4-C5=1.3976         C4-O9=1.3633         
C5-C4=1.3976         C5-C6=1.3767         C5-H7=1.0776         C6-C1=1.3877         C6-C5=1.3767         C6-H8=1.0789         
H7-C5=1.0776         H8-C6=1.0789         O9-C4=1.3633         O9-C10=1.4151        C10-O9=1.4151        C10-H11=1.0930       
C10-H12=1.0876       C10-H13=1.0930       H11-C10=1.0930       H12-C10=1.0876       H13-C10=1.0930       H14-C1=1.0770        
O15-C2=1.3656        O15-C16=1.4153       C16-O15=1.4153       C16-H17=1.0930       C16-H18=1.0876       C16-H19=1.0930       
H17-C16=1.0930       H18-C16=1.0876       H19-C16=1.0930       H20-C3=1.0773        
 C  H  Rav=1.0858 sigma=0.0069  Rmin=1.0770  Rmax=1.0930    10
 C  C  Rav=1.3884 sigma=0.0070  Rmin=1.3767  Rmax=1.3976     6
 O  C  Rav=1.3898 sigma=0.0254  Rmin=1.3633  Rmax=1.4153     4
 
 selected bond angles (degree)
 --------------------
C6-C1-C2=119.10                H14-C1-C2=121.39               H14-C1-C6=119.52               C3-C2-C1=120.17                
O15-C2-C1=124.99               O15-C2-C3=114.83               C4-C3-C2=120.17                H20-C3-C2=117.36               
H20-C3-C4=122.47               C5-C4-C3=119.60                O9-C4-C3=124.60                O9-C4-C5=115.81                
C6-C5-C4=119.72                H7-C5-C4=118.57                H7-C5-C6=121.71                C5-C6-C1=121.24                
H8-C6-C1=119.18                H8-C6-C5=119.57                C10-O9-C4=118.69               H11-C10-O9=111.15              
H12-C10-O9=105.21              H12-C10-H11=109.74             H13-C10-O9=111.15              H13-C10-H11=109.76             
H13-C10-H12=109.74             
 
 selected dihedral angles (degree)
 ---------------------------------
C3-C2-C1-C6=  0.00            C3-C2-C1-H14=180.00           O15-C2-C1-C6=180.00           O15-C2-C1-H14=  0.00          
C4-C3-C2-C1=  0.00            C4-C3-C2-O15=180.00           H20-C3-C2-C1=180.00           H20-C3-C2-O15=  0.00          
C5-C4-C3-C2=  0.00            C5-C4-C3-H20=180.00           O9-C4-C3-C2=180.00            O9-C4-C3-H20=  0.00           
C6-C5-C4-C3=  0.00            C6-C5-C4-O9=180.00            H7-C5-C4-C3=180.00            H7-C5-C4-O9=  0.00            
C5-C6-C1-C2=  0.00            C5-C6-C1-H14=180.00           H8-C6-C1-C2=180.00            H8-C6-C1-H14=  0.00           
C1-C6-C5-C4=  0.00            C1-C6-C5-H7=180.00            H8-C6-C5-C4=180.00            H8-C6-C5-H7=  0.00            
C10-O9-C4-C3=  0.00           C10-O9-C4-C5=180.00           H11-C10-O9-C4= 61.28          H12-C10-O9-C4=180.00          
H13-C10-O9-C4=298.72          
           -------------------------------------------------
          |                Final Singlepoint                |
           -------------------------------------------------

          ...................................................
          :                      SETUP                      :
          :.................................................:
          :  # basis functions                  50          :
          :  # atomic orbitals                  50          :
          :  # shells                           30          :
          :  # electrons                        54          :
          :  max. iterations                   250          :
          :  Hamiltonian                  GFN2-xTB          :
          :  restarted?                      false          :
          :  GBSA solvation                   true          :
          :  PC potential                    false          :
          :  electronic temp.          300.0000000     K    :
          :  accuracy                    1.0000000          :
          :  -> integral cutoff          0.2500000E+02      :
          :  -> integral neglect         0.1000000E-07      :
          :  -> SCF convergence          0.1000000E-05 Eh   :
          :  -> wf. convergence          0.1000000E-03 e    :
          :  Broyden damping             0.4000000          :
          ...................................................

 iter      E             dE          RMSdq      gap      omega  full diag
   1    -30.7639303 -0.307639E+02  0.482E-05    4.23       0.0  T
   2    -30.7639303 -0.612133E-11  0.294E-05    4.23     761.3  T
   3    -30.7639303 -0.139622E-11  0.178E-05    4.23    1255.3  T

   *** convergence criteria satisfied after 3 iterations ***

         #    Occupation            Energy/Eh            Energy/eV
      -------------------------------------------------------------
         1        2.0000           -0.7171304             -19.5141
       ...           ...                  ...                  ...
        21        2.0000           -0.4623499             -12.5812
        22        2.0000           -0.4589978             -12.4900
        23        2.0000           -0.4383278             -11.9275
        24        2.0000           -0.4340279             -11.8105
        25        2.0000           -0.4254308             -11.5766
        26        2.0000           -0.3889377             -10.5835
        27        2.0000           -0.3746832             -10.1956 (HOMO)
        28                         -0.2191198              -5.9626 (LUMO)
        29                         -0.2095963              -5.7034
        30                         -0.0861804              -2.3451
        31                          0.0173136               0.4711
        32                          0.0363227               0.9884
       ...                                ...                  ...
        50                          0.6794915              18.4899
      -------------------------------------------------------------
                  HL-Gap            0.1555634 Eh            4.2331 eV
             Fermi-level           -0.2969015 Eh           -8.0791 eV

 SCC (total)                   0 d,  0 h,  0 min,  0.008 sec
 SCC setup                      ...        0 min,  0.000 sec (  5.290%)
 Dispersion                     ...        0 min,  0.000 sec (  0.612%)
 classical contributions        ...        0 min,  0.000 sec (  0.215%)
 integral evaluation            ...        0 min,  0.002 sec ( 21.323%)
 iterations                     ...        0 min,  0.002 sec ( 24.236%)
 molecular gradient             ...        0 min,  0.004 sec ( 46.296%)
 printout                       ...        0 min,  0.000 sec (  1.782%)

         :::::::::::::::::::::::::::::::::::::::::::::::::::::
         ::                     SUMMARY                     ::
         :::::::::::::::::::::::::::::::::::::::::::::::::::::
         :: total energy             -30.350870502412 Eh    ::
         :: total w/o Gsasa/hb       -30.350499193262 Eh    ::
         :: gradient norm              0.000215580752 Eh/a0 ::
         :: HOMO-LUMO gap              4.233096465650 eV    ::
         ::.................................................::
         :: SCC energy               -30.763930318916 Eh    ::
         :: -> isotropic ES            0.036833755513 Eh    ::
         :: -> anisotropic ES          0.003528371748 Eh    ::
         :: -> anisotropic XC          0.008854363813 Eh    ::
         :: -> dispersion             -0.015071417557 Eh    ::
         :: -> Gsolv                  -0.005281804535 Eh    ::
         ::    -> Gelec               -0.004910495385 Eh    ::
         ::    -> Gsasa                0.000045623385 Eh    ::
         ::    -> Ghb                 -0.001497692233 Eh    ::
         ::    -> Gshift               0.001080759698 Eh    ::
         :: repulsion energy           0.413050927266 Eh    ::
         :: add. restraining           0.000000000000 Eh    ::
         :: total charge              -0.000000000000 e     ::
         :::::::::::::::::::::::::::::::::::::::::::::::::::::

           ------------------------------------------------- 
          |                Numerical Hessian                |
           ------------------------------------------------- 
step length          :   0.00500
SCC accuracy         :   0.30000
Hessian scale factor :   1.00000
frozen atoms in %    :   0.00000    0
RMS gradient         :   0.00022
estimated CPU  time      0.02 min
estimated wall time      0.02 min

writing file <hessian>.

 projected vibrational frequencies (cm⁻¹)
eigval :       -0.00    -0.00    -0.00    -0.00     0.00     0.00
eigval :       82.19    95.56   176.99   196.41   199.87   256.17
eigval :      261.23   271.98   404.48   426.41   445.48   509.73
eigval :      561.93   587.17   652.21   719.66   777.95   844.17
eigval :      859.37   915.37   915.50   978.98  1043.05  1061.71
eigval :     1112.43  1114.64  1115.23  1146.98  1149.11  1150.15
eigval :     1192.04  1256.22  1265.05  1344.27  1386.91  1389.15
eigval :     1435.91  1457.39  1458.34  1461.56  1472.17  1473.80
eigval :     1582.66  1598.42  2945.36  2945.55  2957.55  2958.22
eigval :     3034.11  3034.71  3090.01  3112.30  3118.66  3121.56
           -------------------------------------------------
          |                Property Printout                |
           -------------------------------------------------

    * Orbital Energies and Occupations

         #    Occupation            Energy/Eh            Energy/eV
      -------------------------------------------------------------
         1        2.0000           -0.7171304             -19.5141
       ...           ...                  ...                  ...
        15        2.0000           -0.5240634             -14.2605
        16        2.0000           -0.5123840             -13.9427
        17        2.0000           -0.4867903             -13.2462
        18        2.0000           -0.4849208             -13.1954
        19        2.0000           -0.4760077             -12.9528
        20        2.0000           -0.4636052             -12.6153
        21        2.0000           -0.4623499             -12.5812
        22        2.0000           -0.4589978             -12.4900
        23        2.0000           -0.4383279             -11.9275
        24        2.0000           -0.4340280             -11.8105
        25        2.0000           -0.4254309             -11.5766
        26        2.0000           -0.3889378             -10.5835
        27        2.0000           -0.3746833             -10.1957 (HOMO)
        28                         -0.2191199              -5.9626 (LUMO)
        29                         -0.2095963              -5.7034
        30                         -0.0861805              -2.3451
        31                          0.0173136               0.4711
        32                          0.0363228               0.9884
        33                          0.1132485               3.0816
        34                          0.1184325               3.2227
        35                          0.1294326               3.5220
        36                          0.1472999               4.0082
        37                          0.1584447               4.3115
        38                          0.1740679               4.7366
       ...                                ...                  ...
        50                          0.6794915              18.4899
      -------------------------------------------------------------
                  HL-Gap            0.1555634 Eh            4.2331 eV
             Fermi-level           -0.2969016 Eh           -8.0791 eV

     #   Z          covCN         q      C6AA      α(0)
     1   6 C        2.916    -0.085    30.128     9.001
     2   6 C        2.865     0.139    24.969     8.191
     3   6 C        2.918    -0.099    30.496     9.056
     4   6 C        2.864     0.141    24.925     8.183
     5   6 C        2.919    -0.075    29.876     8.963
     6   6 C        2.922    -0.038    28.948     8.823
     7   1 H        0.926     0.051     2.310     2.377
     8   1 H        0.926     0.051     2.312     2.378
     9   8 O        1.705    -0.301    19.006     5.886
    10   6 C        3.642     0.021    20.580     6.523
    11   1 H        0.924     0.054     2.271     2.357
    12   1 H        0.925     0.081     1.964     2.192
    13   1 H        0.924     0.054     2.271     2.357
    14   1 H        0.926     0.048     2.347     2.396
    15   8 O        1.705    -0.304    19.059     5.894
    16   6 C        3.641     0.021    20.576     6.522
    17   1 H        0.924     0.054     2.268     2.355
    18   1 H        0.925     0.080     1.975     2.198
    19   1 H        0.924     0.054     2.268     2.355
    20   1 H        0.926     0.053     2.281     2.362

 Mol. C6AA /au·bohr⁶  :       4149.230347
 Mol. C8AA /au·bohr⁸  :      96381.361452
 Mol. α(0) /au        :        100.366950


Wiberg/Mayer (AO) data.
largest (>0.10) Wiberg bond orders for each atom

 ---------------------------------------------------------------------------
     #   Z sym  total        # sym  WBO       # sym  WBO       # sym  WBO
 ---------------------------------------------------------------------------
     1   6 C    3.983 --     6 C    1.414     2 C    1.385    14 H    0.966
     2   6 C    3.934 --     1 C    1.385     3 C    1.348    15 O    1.056
     3   6 C    3.978 --     4 C    1.404     2 C    1.348    20 H    0.963
     4   6 C    3.935 --     3 C    1.404     5 C    1.331     9 O    1.059
     5   6 C    3.984 --     6 C    1.476     4 C    1.331     7 H    0.968
     6   6 C    3.991 --     5 C    1.476     1 C    1.414     8 H    0.969
     7   1 H    0.997 --     5 C    0.968
     8   1 H    0.997 --     6 C    0.969
     9   8 O    2.210 --     4 C    1.059    10 C    0.971
    10   6 C    3.931 --    12 H    0.978    11 H    0.977    13 H    0.977
                             9 O    0.971
    11   1 H    0.997 --    10 C    0.977
    12   1 H    0.993 --    10 C    0.978
    13   1 H    0.997 --    10 C    0.977
    14   1 H    0.998 --     1 C    0.966
    15   8 O    2.206 --     2 C    1.056    16 C    0.971
    16   6 C    3.931 --    18 H    0.978    17 H    0.977    19 H    0.977
                            15 O    0.971
    17   1 H    0.997 --    16 C    0.977
    18   1 H    0.993 --    16 C    0.978
    19   1 H    0.997 --    16 C    0.977
    20   1 H    0.997 --     3 C    0.963
 ---------------------------------------------------------------------------

Topologies differ in total number of bonds
Writing topology from bond orders to xtbtopo.mol

molecular dipole:
                 x           y           z       tot (Debye)
 q only:       -0.470      -0.247       0.000
   full:       -0.576      -0.286       0.000       1.635
molecular quadrupole (traceless):
                xx          xy          yy          xz          yz          zz
 q only:        6.806      -5.437      -1.224      -0.000       0.000      -5.582
  q+dip:        6.254      -5.900      -0.222      -0.000       0.000      -6.033
   full:        6.003      -6.242      -1.255      -0.000       0.000      -4.748

           -------------------------------------------------
          |                Geometry Summary                 |
           -------------------------------------------------

      molecular mass/u    :      138.1641045
   center of mass at/Å    :        0.0147964       0.0168789      -0.0000001
  moments of inertia/u·Å² :        0.1982381E+03   0.5720550E+03   0.7638456E+03
rotational constants/cm⁻¹ :        0.8503728E-01   0.2946855E-01   0.2206942E-01

 * 20 selected distances

     #   Z          #   Z                                           value/Å
     1   6 C        2   6 C                                       1.3874447
     2   6 C        3   6 C                                       1.3962045
     3   6 C        4   6 C                                       1.3846581
     4   6 C        5   6 C                                       1.3976225
     1   6 C        6   6 C                                       1.3876797
     5   6 C        6   6 C                                       1.3767234
     5   6 C        7   1 H                                       1.0775997
     6   6 C        8   1 H                                       1.0789305
     4   6 C        9   8 O                                       1.3633256
     9   8 O       10   6 C                                       1.4150785
    10   6 C       11   1 H                                       1.0929836
    10   6 C       12   1 H                                       1.0875796
    10   6 C       13   1 H                                       1.0929836
     1   6 C       14   1 H                                       1.0770254 (min)
     2   6 C       15   8 O                                       1.3655880
    15   8 O       16   6 C                                       1.4152940 (max)
    16   6 C       17   1 H                                       1.0929865
    16   6 C       18   1 H                                       1.0876257
    16   6 C       19   1 H                                       1.0929865
     3   6 C       20   1 H                                       1.0773370

 * 3 distinct bonds (by element types)

   Z      Z             #   av. dist./Å        max./Å        min./Å
   1 H    6 C          10     1.0858038     1.0929865     1.0770254
   6 C    6 C           6     1.3883888     1.3976225     1.3767234
   6 C    8 O           4     1.3898215     1.4152940     1.3633256

           -------------------------------------------------
          |               Frequency Printout                |
           -------------------------------------------------
 projected vibrational frequencies (cm⁻¹)
eigval :       -0.00    -0.00    -0.00    -0.00     0.00     0.00
eigval :       82.19    95.56   176.99   196.41   199.87   256.17
eigval :      261.23   271.98   404.48   426.41   445.48   509.73
eigval :      561.93   587.17   652.21   719.66   777.95   844.17
eigval :      859.37   915.37   915.50   978.98  1043.05  1061.71
eigval :     1112.43  1114.64  1115.23  1146.98  1149.11  1150.15
eigval :     1192.04  1256.22  1265.05  1344.27  1386.91  1389.15
eigval :     1435.91  1457.39  1458.34  1461.56  1472.17  1473.80
eigval :     1582.66  1598.42  2945.36  2945.55  2957.55  2958.22
eigval :     3034.11  3034.71  3090.01  3112.30  3118.66  3121.56
 reduced masses (amu)
   1: 11.15   2: 11.54   3: 11.90   4: 11.84   5: 11.47   6: 11.86   7:  9.80   8: 10.20
   9:  9.85  10:  6.12  11:  6.20  12:  6.56  13:  7.42  14:  9.33  15: 11.23  16:  9.40
  17: 11.51  18: 12.14  19: 11.31  20: 11.50  21: 10.04  22: 12.00  23:  3.92  24:  3.49
  25:  3.80  26: 10.69  27:  3.20  28: 11.08  29: 12.75  30: 10.42  31:  4.42  32:  3.71
  33:  3.70  34:  6.26  35:  4.61  36:  6.03  37:  2.83  38:  7.00  39:  8.74  40: 11.83
  41:  2.55  42:  2.63  43:  9.66  44:  1.54  45:  1.54  46:  8.27  47:  1.85  48:  2.89
  49: 11.61  50: 11.57  51:  1.96  52:  1.96  53:  1.44  54:  1.44  55:  1.70  56:  1.71
  57:  1.79  58:  1.84  59:  1.85  60:  1.84
 IR intensities (km·mol⁻¹)
   1:  0.04   2:  0.15   3:  0.06   4:  0.01   5:  0.07   6:  0.12   7:  8.78   8:  3.32
   9:  2.53  10:  3.58  11:  0.06  12:  1.19  13:  3.86  14:  1.33  15:  1.24  16:  0.28
  17:  2.68  18: 20.53  19:  6.94  20:  0.02  21:  1.91  22: 19.64  23: 75.40  24:  4.10
  25:  0.12  26:131.11  27:  0.01  28:  1.81  29: 42.17  30:139.80  31: 37.06  32:  2.00
  33:  3.36  34:352.65  35: 29.67  36:138.47  37: 59.85  38: 97.53  39:139.25  40: 56.52
  41:  0.50  42:  2.75  43: 21.02  44:  7.80  45:  6.40  46:220.47  47: 20.71  48: 11.34
  49:183.16  50:254.48  51: 57.87  52: 33.78  53: 55.62  54: 35.73  55: 17.85  56: 15.11
  57: 38.82  58: 70.00  59: 76.22  60:  6.58
 Raman intensities (amu)
   1:  0.00   2:  0.00   3:  0.00   4:  0.00   5:  0.00   6:  0.00   7:  0.00   8:  0.00
   9:  0.00  10:  0.00  11:  0.00  12:  0.00  13:  0.00  14:  0.00  15:  0.00  16:  0.00
  17:  0.00  18:  0.00  19:  0.00  20:  0.00  21:  0.00  22:  0.00  23:  0.00  24:  0.00
  25:  0.00  26:  0.00  27:  0.00  28:  0.00  29:  0.00  30:  0.00  31:  0.00  32:  0.00
  33:  0.00  34:  0.00  35:  0.00  36:  0.00  37:  0.00  38:  0.00  39:  0.00  40:  0.00
  41:  0.00  42:  0.00  43:  0.00  44:  0.00  45:  0.00  46:  0.00  47:  0.00  48:  0.00
  49:  0.00  50:  0.00  51:  0.00  52:  0.00  53:  0.00  54:  0.00  55:  0.00  56:  0.00
  57:  0.00  58:  0.00  59:  0.00  60:  0.00
 output can be read by thermo (or use thermo option).
 writing <g98.out> molden fake output.
 recommended (thermochemical) frequency scaling factor: 1.0
           -------------------------------------------------
          |             Thermodynamic Functions             |
           -------------------------------------------------

Molecule has the following symmetry elements: (sigma) 
It seems to be the Cs point group
cs  symmetry found (for desy threshold:  0.10E+00) used in thermo

          ...................................................
          :                      SETUP                      :
          :.................................................:
          :  # frequencies                          54      :
          :  # imaginary freq.                       0      :
          :  linear?                             false      :
          :  only rotor calc.                    false      :
          :  symmetry                               cs      :
          :  rotational number                       1      :
          :  scaling factor                  1.0000000      :
          :  rotor cutoff                   50.0000000 cm⁻¹ :
          :  imag. cutoff                  -20.0000000 cm⁻¹ :
          :.................................................:

    mode    ω/cm⁻¹     T·S(HO)/kcal·mol⁻¹    T·S(FR)/kcal·mol⁻¹   T·S(vib)
   ------------------------------------------------------------------------
       1     82.19    -1.14425 ( 87.95%)    -0.90919 ( 12.05%)    -1.11593
       2     95.56    -1.05631 ( 93.03%)    -0.86456 (  6.97%)    -1.04294
       3    176.99    -0.70361 ( 99.37%)    -0.68202 (  0.63%)    -0.70347
       4    196.41    -0.64593 ( 99.58%)    -0.65119 (  0.42%)    -0.64596
       5    199.87    -0.63633 ( 99.61%)    -0.64601 (  0.39%)    -0.63637
       6    256.17    -0.50320 ( 99.86%)    -0.57251 (  0.14%)    -0.50330
       7    261.23    -0.49301 ( 99.87%)    -0.56672 (  0.13%)    -0.49311
       8    271.98    -0.47214 ( 99.89%)    -0.55476 (  0.11%)    -0.47224
   ------------------------------------------------------------------------

   temp. (K)  partition function   enthalpy   heat capacity  entropy
                                   cal/mol     cal/K/mol   cal/K/mol   J/K/mol
 298.15  VIB   240.                 4369.884     30.935     25.410
         ROT  0.711E+06              888.752      2.981     29.758
         INT  0.171E+09             5258.636     33.916     55.168
         TR   0.157E+28             1481.254      4.968     40.663
         TOT                        6739.8902    38.8838    95.8316   400.9594

       T/K    H(0)-H(T)+PV         H(T)/Eh          T*S/Eh         G(T)/Eh
   ------------------------------------------------------------------------
    298.15    0.107407E-01    0.170495E+00    0.455327E-01    0.124962E+00
   ------------------------------------------------------------------------

         :::::::::::::::::::::::::::::::::::::::::::::::::::::
         ::                  THERMODYNAMIC                  ::
         :::::::::::::::::::::::::::::::::::::::::::::::::::::
         :: total free energy         -30.225908221246 Eh   ::
         ::.................................................::
         :: total energy              -30.350870502434 Eh   ::
         :: zero point energy           0.159754263101 Eh   ::
         :: G(RRHO) w/o ZPVE           -0.034791981913 Eh   ::
         :: G(RRHO) contrib.            0.124962281188 Eh   ::
         :::::::::::::::::::::::::::::::::::::::::::::::::::::

optimized geometry written to: xtbopt.xyz


           -------------------------------------------------
          | TOTAL ENERGY              -30.350870502434 Eh   |
          | TOTAL ENTHALPY            -30.180375540690 Eh   |
          | TOTAL FREE ENERGY         -30.225908221246 Eh   |
          | GRADIENT NORM               0.000215523720 Eh/α |
          | HOMO-LUMO GAP               4.233095119206 eV   |
           -------------------------------------------------

------------------------------------------------------------------------
 * finished run on 2021/11/15 at 09:36:23.896     
------------------------------------------------------------------------
 total:
 * wall-time:     0 d,  0 h,  0 min,  1.297 sec
 *  cpu-time:     0 d,  0 h,  0 min,  1.281 sec
 * ratio c/w:     0.988 speedup
 SCF:
 * wall-time:     0 d,  0 h,  0 min,  0.013 sec
 *  cpu-time:     0 d,  0 h,  0 min,  0.016 sec
 * ratio c/w:     1.163 speedup
 ANC optimizer:
 * wall-time:     0 d,  0 h,  0 min,  0.064 sec
 *  cpu-time:     0 d,  0 h,  0 min,  0.062 sec
 * ratio c/w:     0.983 speedup
 analytical hessian:
 * wall-time:     0 d,  0 h,  0 min,  1.182 sec
 *  cpu-time:     0 d,  0 h,  0 min,  1.172 sec
 * ratio c/w:     0.991 speedup

