 Entering Gaussian System
 *********************************************
 Gaussian 98:
 frequency output generated by the xtb code
 *********************************************
                         Standard orientation:
 --------------------------------------------------------------------
  Center     Atomic     Atomic              Coordinates (Angstroms)
  Number     Number      Type              X           Y           Z
 --------------------------------------------------------------------
    1          6             0       -1.339790    1.159954    0.000003
    2          6             0       -1.057713   -0.198514    0.000004
    3          6             0        0.266772   -0.640245    0.000000
    4          6             0        1.305614    0.275226   -0.000005
    5          6             0        1.020080    1.643370   -0.000006
    6          6             0       -0.289776    2.067216   -0.000003
    7          1             0        1.841195    2.341218   -0.000011
    8          1             0       -0.507537    3.123943   -0.000004
    9          8             0        2.628345   -0.054984   -0.000009
   10          6             0        2.986745   -1.423924   -0.000008
   11          1             0        2.612762   -1.929443   -0.893988
   12          1             0        4.074277   -1.434172   -0.000012
   13          1             0        2.612768   -1.929439    0.893977
   14          1             0       -2.354064    1.522213    0.000006
   15          8             0       -1.993865   -1.192722    0.000009
   16          6             0       -3.362757   -0.833289    0.000013
   17          1             0       -3.620180   -0.260254   -0.894404
   18          1             0       -3.905457   -1.775842    0.000017
   19          1             0       -3.620174   -0.260251    0.894431
   20          1             0        0.433706   -1.704570    0.000001
 --------------------------------------------------------------------
     1 basis functions        1 primitive gaussians
     1 alpha electrons        1 beta electrons
 
 Harmonic frequencies (cm**-1), IR intensities (km*mol⁻¹),
 Raman scattering activities (A**4/amu), Raman depolarization ratios,
 reduced masses (AMU), force constants (mDyne/A) and normal coordinates:
                      1                      2                      3
                        a                      a                      a 
 Frequencies --    82.1922                95.5609               176.9910
 Red. masses --     9.8005                10.1959                 9.8487
 Frc consts  --     0.0000                 0.0000                 0.0000
 IR Inten    --     8.7756                 3.3225                 2.5338
 Raman Activ --     0.0000                 0.0000                 0.0000
 Depolar     --     0.0000                 0.0000                 0.0000
 Atom AN      X      Y      Z        X      Y      Z        X      Y      Z
   1   6     0.00   0.00   0.08     0.00   0.00   0.32    -0.00  -0.15   0.00
   2   6     0.00   0.00   0.26     0.00   0.00   0.09    -0.03  -0.16   0.00
   3   6     0.00   0.00   0.29    -0.00  -0.00  -0.13    -0.03  -0.21   0.00
   4   6     0.00   0.00   0.09    -0.00  -0.00  -0.23    -0.05  -0.16   0.00
   5   6    -0.00  -0.00  -0.07    -0.00  -0.00  -0.10    -0.05  -0.16   0.00
   6   6    -0.00   0.00  -0.06     0.00   0.00   0.20    -0.03  -0.14   0.00
   7   1    -0.00  -0.00  -0.06    -0.00  -0.00  -0.06    -0.01  -0.06   0.00
   8   1    -0.00  -0.00  -0.05     0.00   0.00   0.11    -0.01  -0.04   0.00
   9   8    -0.00  -0.00  -0.04    -0.00  -0.00  -0.51     0.03   0.12  -0.00
  10   6    -0.00  -0.00  -0.28     0.00   0.00   0.45     0.51   0.24  -0.00
  11   1    -0.07   0.03  -0.07     0.04  -0.16   0.20     0.20   0.03   0.00
  12   1    -0.00  -0.00  -0.17     0.00   0.00   0.18     0.15   0.19   0.00
  13   1     0.07  -0.03  -0.07    -0.04   0.16   0.20     0.20   0.03  -0.00
  14   1     0.00   0.00   0.01     0.00   0.00   0.16     0.00  -0.04   0.00
  15   8     0.00   0.00   0.44     0.00   0.00   0.06    -0.27   0.02   0.00
  16   6    -0.00  -0.00  -0.52    -0.00  -0.00  -0.21    -0.15   0.42  -0.00
  17   1     0.16  -0.04  -0.23     0.06   0.05  -0.04     0.01   0.14  -0.00
  18   1    -0.00  -0.00  -0.20    -0.00  -0.00  -0.15    -0.12   0.17   0.00
  19   1    -0.16   0.04  -0.23    -0.06  -0.05  -0.04     0.01   0.14   0.00
  20   1     0.00   0.00   0.13    -0.00  -0.00  -0.08     0.01  -0.06  -0.00
                      4                      5                      6
                        a                      a                      a 
 Frequencies --   196.4089               199.8713               256.1672
 Red. masses --     6.1188                 6.2002                 6.5555
 Frc consts  --     0.0000                 0.0000                 0.0000
 IR Inten    --     3.5822                 0.0642                 1.1902
 Raman Activ --     0.0000                 0.0000                 0.0000
 Depolar     --     0.0000                 0.0000                 0.0000
 Atom AN      X      Y      Z        X      Y      Z        X      Y      Z
   1   6    -0.00  -0.00  -0.10     0.00   0.00   0.30    -0.00  -0.00  -0.35
   2   6     0.00  -0.00   0.04     0.00   0.00   0.12    -0.00  -0.00  -0.12
   3   6     0.00   0.00   0.39     0.00   0.00   0.13    -0.00  -0.00  -0.23
   4   6     0.00   0.00   0.15    -0.00  -0.00  -0.01     0.00   0.00   0.00
   5   6     0.00  -0.00   0.08    -0.00  -0.00  -0.39     0.00   0.00   0.33
   6   6    -0.00  -0.00   0.02    -0.00  -0.00  -0.12    -0.00  -0.00  -0.07
   7   1    -0.00  -0.00  -0.00    -0.00  -0.00  -0.21     0.00   0.00   0.21
   8   1    -0.00  -0.00  -0.01    -0.00  -0.00  -0.07    -0.00  -0.00  -0.01
   9   8    -0.00  -0.00  -0.27     0.00   0.00   0.27    -0.00  -0.00  -0.07
  10   6     0.00   0.00   0.02     0.00   0.00  -0.05     0.00   0.00   0.02
  11   1    -0.34  -0.15   0.23     0.02   0.06  -0.06    -0.06  -0.03   0.05
  12   1    -0.00  -0.00  -0.41     0.00   0.00   0.01    -0.00  -0.00  -0.07
  13   1     0.34   0.15   0.23    -0.02  -0.06  -0.06     0.06   0.03   0.05
  14   1    -0.00  -0.00  -0.09     0.00   0.00   0.17    -0.00  -0.00  -0.12
  15   8    -0.00  -0.00  -0.35    -0.00  -0.00  -0.25     0.00   0.00   0.38
  16   6    -0.00   0.00   0.04    -0.00   0.00   0.02     0.00   0.00   0.05
  17   1    -0.06   0.06   0.06     0.04   0.34   0.22     0.13   0.32   0.18
  18   1    -0.00   0.00  -0.02    -0.00  -0.00  -0.38    -0.00  -0.00  -0.41
  19   1     0.06  -0.06   0.06    -0.04  -0.34   0.22    -0.13  -0.32   0.18
  20   1     0.00   0.00   0.18     0.00   0.00   0.05    -0.00  -0.00  -0.08
                      7                      8                      9
                        a                      a                      a 
 Frequencies --   261.2261               271.9832               404.4826
 Red. masses --     7.4182                 9.3336                11.2347
 Frc consts  --     0.0000                 0.0000                 0.0000
 IR Inten    --     3.8638                 1.3323                 1.2390
 Raman Activ --     0.0000                 0.0000                 0.0000
 Depolar     --     0.0000                 0.0000                 0.0000
 Atom AN      X      Y      Z        X      Y      Z        X      Y      Z
   1   6     0.00   0.00   0.19     0.01   0.27  -0.00     0.32  -0.15  -0.00
   2   6    -0.00  -0.00  -0.12    -0.15   0.23  -0.00     0.04  -0.21   0.00
   3   6    -0.00  -0.00  -0.45    -0.18   0.05   0.00     0.12  -0.11  -0.00
   4   6    -0.00  -0.00  -0.15    -0.03  -0.12   0.00     0.07   0.05  -0.00
   5   6    -0.00  -0.00  -0.17     0.12  -0.08   0.00     0.25   0.05  -0.00
   6   6     0.00   0.00   0.02     0.18   0.11  -0.00     0.25  -0.05  -0.00
   7   1    -0.00  -0.00  -0.04     0.06  -0.06   0.00     0.09  -0.01  -0.00
   8   1     0.00   0.00   0.05     0.10   0.04  -0.00     0.03  -0.02  -0.00
   9   8     0.00   0.00   0.42    -0.02  -0.10   0.00     0.13   0.30  -0.00
  10   6     0.00   0.00   0.05     0.38   0.01  -0.00    -0.28   0.21   0.00
  11   1    -0.32  -0.03   0.17     0.16  -0.03   0.00    -0.14   0.10  -0.00
  12   1    -0.00  -0.00  -0.39     0.11   0.11  -0.00    -0.08  -0.06   0.00
  13   1     0.32   0.03   0.17     0.16  -0.03  -0.00    -0.14   0.10   0.00
  14   1     0.00   0.00   0.16     0.01   0.10  -0.00     0.09  -0.04  -0.00
  15   8     0.00   0.00   0.17    -0.11   0.19   0.00    -0.34   0.02   0.00
  16   6    -0.00   0.00  -0.02    -0.25  -0.45   0.00    -0.40  -0.12   0.00
  17   1     0.02  -0.07  -0.06    -0.16  -0.16   0.00    -0.15  -0.05  -0.00
  18   1     0.00   0.00   0.06     0.06  -0.21   0.00    -0.06  -0.07   0.00
  19   1    -0.02   0.07  -0.06    -0.16  -0.16  -0.00    -0.15  -0.05   0.00
  20   1    -0.00  -0.00  -0.14    -0.09   0.01   0.00     0.08  -0.02  -0.00
                     10                     11                     12
                        a                      a                      a 
 Frequencies --   426.4127               445.4780               509.7253
 Red. masses --     9.3979                11.5054                12.1354
 Frc consts  --     0.0000                 0.0000                 0.0000
 IR Inten    --     0.2837                 2.6756                20.5312
 Raman Activ --     0.0000                 0.0000                 0.0000
 Depolar     --     0.0000                 0.0000                 0.0000
 Atom AN      X      Y      Z        X      Y      Z        X      Y      Z
   1   6    -0.00  -0.00  -0.31     0.17   0.12  -0.00    -0.26   0.06   0.00
   2   6    -0.00  -0.00  -0.30     0.05   0.08   0.00     0.12   0.18  -0.00
   3   6     0.00  -0.00   0.24    -0.14  -0.34   0.00     0.09  -0.14  -0.00
   4   6    -0.00  -0.00  -0.31    -0.29  -0.27   0.00     0.21  -0.23  -0.00
   5   6    -0.00  -0.00  -0.31     0.01  -0.25   0.00    -0.25  -0.35   0.00
   6   6     0.00   0.00   0.52     0.19   0.10  -0.00    -0.19  -0.11   0.00
   7   1     0.00  -0.00  -0.06     0.09  -0.18   0.00    -0.10  -0.07   0.00
   8   1     0.00   0.00   0.39     0.10   0.04  -0.00     0.03  -0.01  -0.00
   9   8    -0.00   0.00   0.13    -0.35   0.21   0.00     0.45   0.19  -0.00
  10   6    -0.00   0.00   0.01    -0.19   0.30   0.00    -0.09   0.04   0.00
  11   1     0.01   0.03  -0.02    -0.05   0.08   0.00    -0.11   0.07   0.00
  12   1    -0.00   0.00   0.02    -0.06   0.10  -0.00    -0.03  -0.16   0.00
  13   1    -0.01  -0.03  -0.02    -0.05   0.08  -0.00    -0.11   0.07  -0.00
  14   1    -0.00  -0.00  -0.08     0.05   0.04  -0.00    -0.09  -0.04   0.00
  15   8     0.00   0.00   0.13     0.23   0.03  -0.00     0.05   0.38  -0.00
  16   6     0.00   0.00   0.02     0.27  -0.01  -0.00    -0.04  -0.01   0.00
  17   1     0.02   0.02   0.01     0.08   0.00   0.00    -0.08  -0.04  -0.00
  18   1    -0.00  -0.00  -0.04     0.07   0.00  -0.00     0.09  -0.06  -0.00
  19   1    -0.02  -0.02   0.01     0.08   0.00  -0.00    -0.08  -0.04   0.00
  20   1     0.00   0.00   0.28    -0.11  -0.11  -0.00    -0.10  -0.06   0.00
                     13                     14                     15
                        a                      a                      a 
 Frequencies --   561.9328               587.1696               652.2073
 Red. masses --    11.3077                11.5047                10.0387
 Frc consts  --     0.0000                 0.0000                 0.0000
 IR Inten    --     6.9426                 0.0217                 1.9091
 Raman Activ --     0.0000                 0.0000                 0.0000
 Depolar     --     0.0000                 0.0000                 0.0000
 Atom AN      X      Y      Z        X      Y      Z        X      Y      Z
   1   6     0.22  -0.13  -0.00     0.00   0.00   0.14    -0.00  -0.00  -0.33
   2   6     0.36  -0.07  -0.00    -0.00  -0.00  -0.64     0.00   0.00   0.45
   3   6     0.25  -0.29  -0.00     0.00  -0.00  -0.01    -0.00  -0.00  -0.30
   4   6    -0.13   0.08   0.00     0.00   0.00   0.65     0.00   0.00   0.43
   5   6    -0.22   0.15   0.00    -0.00  -0.00  -0.14    -0.00  -0.00  -0.32
   6   6    -0.19   0.27   0.00    -0.00   0.00   0.02     0.00   0.00   0.37
   7   1    -0.05   0.03   0.00    -0.00  -0.00  -0.19    -0.00  -0.00  -0.24
   8   1    -0.11   0.06   0.00    -0.00   0.00  -0.00    -0.00   0.00  -0.00
   9   8    -0.24  -0.17   0.00    -0.00  -0.00  -0.18     0.00  -0.00  -0.04
  10   6     0.05  -0.13   0.00    -0.00  -0.00  -0.02    -0.00  -0.00  -0.00
  11   1     0.07  -0.07  -0.00     0.02  -0.02  -0.00    -0.00  -0.01   0.01
  12   1     0.02   0.07  -0.00     0.00   0.00   0.02    -0.00  -0.00  -0.01
  13   1     0.07  -0.07   0.00    -0.02   0.02  -0.00     0.00   0.01   0.01
  14   1     0.01  -0.19   0.00     0.00   0.00   0.17    -0.00  -0.00  -0.24
  15   8     0.03   0.41  -0.00     0.00   0.00   0.16    -0.00  -0.00  -0.04
  16   6    -0.10  -0.02   0.00     0.00   0.00   0.02    -0.00   0.00  -0.00
  17   1    -0.12  -0.05  -0.00     0.02  -0.00  -0.00    -0.01   0.01   0.01
  18   1     0.11  -0.09  -0.00    -0.00  -0.00  -0.01    -0.00   0.00  -0.01
  19   1    -0.12  -0.05   0.00    -0.02   0.00  -0.00     0.01  -0.01   0.01
  20   1     0.14  -0.07  -0.00     0.00   0.00   0.02    -0.00  -0.00  -0.25
                     16                     17                     18
                        a                      a                      a 
 Frequencies --   719.6642               777.9470               844.1734
 Red. masses --    11.9987                 3.9215                 3.4898
 Frc consts  --     0.0000                 0.0000                 0.0000
 IR Inten    --    19.6410                75.4028                 4.1037
 Raman Activ --     0.0000                 0.0000                 0.0000
 Depolar     --     0.0000                 0.0000                 0.0000
 Atom AN      X      Y      Z        X      Y      Z        X      Y      Z
   1   6     0.18   0.20  -0.00    -0.00  -0.00  -0.25     0.00   0.00   0.25
   2   6    -0.04  -0.03   0.00     0.00   0.00   0.23     0.00   0.00   0.03
   3   6    -0.02  -0.19   0.00    -0.00  -0.00  -0.19    -0.00  -0.00  -0.39
   4   6    -0.01  -0.07  -0.00     0.00   0.00   0.21     0.00   0.00   0.06
   5   6    -0.24   0.00   0.00    -0.00  -0.00  -0.16    -0.00   0.00  -0.01
   6   6    -0.09   0.63  -0.00    -0.00   0.00  -0.17     0.00   0.00   0.06
   7   1    -0.00  -0.07  -0.00     0.00   0.00   0.42     0.00   0.00   0.05
   8   1    -0.00   0.18  -0.00     0.00   0.00   0.34    -0.00  -0.00  -0.18
   9   8     0.32   0.05  -0.00    -0.00  -0.00  -0.06    -0.00  -0.00  -0.03
  10   6     0.07  -0.12  -0.00     0.00  -0.00  -0.01     0.00  -0.00   0.00
  11   1    -0.03   0.01   0.00     0.01   0.00  -0.01     0.00   0.01  -0.01
  12   1     0.02  -0.14   0.00     0.00  -0.00   0.02     0.00   0.00   0.03
  13   1    -0.03   0.01  -0.00    -0.01  -0.00  -0.01    -0.00  -0.01  -0.01
  14   1     0.03   0.02  -0.00     0.00   0.00   0.57    -0.00  -0.00  -0.42
  15   8    -0.12  -0.41   0.00    -0.00  -0.00  -0.07    -0.00  -0.00  -0.01
  16   6    -0.07  -0.03   0.00    -0.00  -0.00  -0.01    -0.00  -0.00  -0.01
  17   1     0.06   0.03   0.00    -0.00  -0.01  -0.01    -0.01   0.01   0.01
  18   1    -0.15   0.07   0.00    -0.00   0.00   0.03    -0.00  -0.00  -0.01
  19   1     0.06   0.03  -0.00     0.00   0.01  -0.01     0.01  -0.01   0.01
  20   1    -0.04  -0.06   0.00     0.00   0.00   0.34     0.00   0.00   0.75
                     19                     20                     21
                        a                      a                      a 
 Frequencies --   859.3694               915.3666               915.4975
 Red. masses --     3.8043                10.6879                 3.2046
 Frc consts  --     0.0000                 0.0000                 0.0000
 IR Inten    --     0.1193               131.1085                 0.0079
 Raman Activ --     0.0000                 0.0000                 0.0000
 Depolar     --     0.0000                 0.0000                 0.0000
 Atom AN      X      Y      Z        X      Y      Z        X      Y      Z
   1   6    -0.00  -0.00  -0.27     0.18  -0.22   0.00     0.00  -0.00  -0.11
   2   6     0.00   0.00   0.06    -0.29  -0.13   0.00    -0.00  -0.00  -0.07
   3   6    -0.00  -0.00  -0.12    -0.37  -0.11  -0.00    -0.00  -0.00   0.07
   4   6    -0.00  -0.00  -0.11    -0.26   0.02   0.00    -0.00   0.00  -0.05
   5   6     0.00   0.00   0.38     0.08   0.26   0.00     0.00   0.00  -0.19
   6   6     0.00   0.00   0.10    -0.03  -0.02  -0.00    -0.00  -0.00   0.37
   7   1    -0.00  -0.00  -0.66     0.04   0.04  -0.00     0.00   0.00   0.41
   8   1    -0.00  -0.00  -0.22    -0.20  -0.05   0.00    -0.00  -0.00  -0.75
   9   8     0.00   0.00   0.02     0.27   0.16  -0.00     0.00   0.00  -0.00
  10   6     0.00  -0.00   0.01     0.16  -0.18  -0.00     0.00  -0.00  -0.00
  11   1    -0.00   0.01  -0.00    -0.06   0.02   0.00     0.00  -0.00   0.00
  12   1     0.00   0.00   0.01     0.04  -0.24   0.00     0.00  -0.00   0.00
  13   1     0.00  -0.01  -0.00    -0.06   0.02  -0.00    -0.00   0.00   0.00
  14   1     0.00   0.00   0.45     0.06  -0.03  -0.00     0.00  -0.00   0.26
  15   8    -0.00   0.00  -0.02    -0.06   0.28  -0.00    -0.00   0.00   0.00
  16   6     0.00   0.00  -0.00     0.33  -0.01  -0.00     0.00  -0.00   0.00
  17   1     0.00  -0.00  -0.00     0.00  -0.03   0.00     0.01  -0.00  -0.00
  18   1     0.00  -0.00   0.01     0.19  -0.06  -0.00     0.00  -0.00   0.01
  19   1    -0.00   0.00  -0.00     0.00  -0.03  -0.00    -0.01   0.00  -0.00
  20   1     0.00   0.00   0.26    -0.15  -0.04   0.00    -0.00  -0.00  -0.01
                     22                     23                     24
                        a                      a                      a 
 Frequencies --   978.9763              1043.0515              1061.7144
 Red. masses --    11.0820                12.7548                10.4187
 Frc consts  --     0.0000                 0.0000                 0.0000
 IR Inten    --     1.8093                42.1698               139.7972
 Raman Activ --     0.0000                 0.0000                 0.0000
 Depolar     --     0.0000                 0.0000                 0.0000
 Atom AN      X      Y      Z        X      Y      Z        X      Y      Z
   1   6    -0.45   0.21   0.00     0.11  -0.04  -0.00     0.14  -0.14  -0.00
   2   6     0.10   0.12  -0.00     0.10   0.07  -0.00     0.03   0.10  -0.00
   3   6     0.13  -0.55   0.00    -0.02   0.15  -0.00    -0.19   0.01   0.00
   4   6    -0.13   0.05   0.00    -0.18   0.07   0.00    -0.00  -0.10   0.00
   5   6     0.31   0.39  -0.00    -0.10  -0.13   0.00     0.06   0.15  -0.00
   6   6     0.04  -0.12   0.00     0.05  -0.14   0.00    -0.07   0.00   0.00
   7   1     0.07   0.12  -0.00     0.02  -0.10   0.00    -0.01   0.07  -0.00
   8   1     0.00  -0.02   0.00     0.05  -0.04  -0.00    -0.26  -0.05   0.00
   9   8     0.02   0.08  -0.00    -0.18   0.50  -0.00     0.13  -0.31   0.00
  10   6     0.06  -0.10  -0.00     0.19  -0.47   0.00    -0.02   0.29  -0.00
  11   1    -0.02   0.00  -0.00    -0.03  -0.03  -0.00    -0.04   0.05   0.02
  12   1     0.01  -0.08   0.00     0.04  -0.20   0.00    -0.00  -0.00  -0.00
  13   1    -0.02   0.00   0.00    -0.03  -0.03   0.00    -0.04   0.05  -0.02
  14   1    -0.10   0.11   0.00     0.04   0.01  -0.00     0.01  -0.12   0.00
  15   8     0.05  -0.08   0.00     0.35  -0.06  -0.00     0.49  -0.03  -0.00
  16   6    -0.10  -0.02   0.00    -0.34   0.04   0.00    -0.41   0.06   0.00
  17   1     0.02   0.02   0.00    -0.01   0.03  -0.00    -0.00   0.03  -0.01
  18   1    -0.10   0.04   0.00    -0.12   0.04   0.00    -0.15   0.05   0.00
  19   1     0.02   0.02  -0.00    -0.01   0.03   0.00    -0.00   0.03   0.01
  20   1    -0.01  -0.16   0.00     0.01   0.05  -0.00    -0.38  -0.05   0.00
                     25                     26                     27
                        a                      a                      a 
 Frequencies --  1112.4302              1114.6392              1115.2252
 Red. masses --     4.4205                 3.7060                 3.6980
 Frc consts  --     0.0000                 0.0000                 0.0000
 IR Inten    --    37.0615                 1.9985                 3.3630
 Raman Activ --     0.0000                 0.0000                 0.0000
 Depolar     --     0.0000                 0.0000                 0.0000
 Atom AN      X      Y      Z        X      Y      Z        X      Y      Z
   1   6     0.30   0.09  -0.00    -0.00  -0.00  -0.00     0.00   0.00   0.00
   2   6     0.01   0.10  -0.00    -0.00  -0.00  -0.00    -0.00   0.00  -0.00
   3   6     0.00  -0.14   0.00     0.00   0.00   0.00     0.00  -0.00  -0.00
   4   6     0.10   0.00  -0.00    -0.00  -0.00  -0.00     0.00  -0.00   0.00
   5   6    -0.22   0.02   0.00     0.00  -0.00  -0.00    -0.00   0.00  -0.00
   6   6     0.05  -0.22   0.00    -0.00   0.00   0.00     0.00  -0.00  -0.00
   7   1    -0.46   0.47   0.00     0.00  -0.00   0.01    -0.00   0.00  -0.00
   8   1     0.01  -0.07   0.00     0.00   0.00  -0.00     0.00  -0.00   0.00
   9   8    -0.04   0.05  -0.00    -0.00  -0.00  -0.22    -0.00   0.00  -0.03
  10   6    -0.03  -0.06   0.00     0.00   0.00   0.42     0.00  -0.00   0.05
  11   1     0.03  -0.03  -0.00    -0.12   0.56  -0.17    -0.01   0.06  -0.02
  12   1    -0.01   0.09  -0.00    -0.00  -0.00  -0.22    -0.00   0.00  -0.03
  13   1     0.03  -0.03   0.00     0.12  -0.56  -0.17     0.01  -0.06  -0.02
  14   1     0.18   0.30  -0.00    -0.00  -0.00  -0.00     0.00   0.00  -0.02
  15   8    -0.10   0.08   0.00     0.00  -0.00   0.03    -0.00  -0.00  -0.22
  16   6     0.04  -0.20  -0.00    -0.00   0.00  -0.05     0.00   0.00   0.42
  17   1     0.14   0.05   0.03    -0.06   0.02   0.02     0.55  -0.17  -0.17
  18   1    -0.21   0.08   0.00     0.00  -0.00   0.03    -0.00  -0.00  -0.22
  19   1     0.14   0.05  -0.03     0.06  -0.02   0.02    -0.55   0.17  -0.17
  20   1    -0.15  -0.06   0.00     0.00   0.00  -0.02    -0.00  -0.00   0.00
                     28                     29                     30
                        a                      a                      a 
 Frequencies --  1146.9823              1149.1086              1150.1530
 Red. masses --     6.2567                 4.6088                 6.0284
 Frc consts  --     0.0000                 0.0000                 0.0000
 IR Inten    --   352.6481                29.6710               138.4699
 Raman Activ --     0.0000                 0.0000                 0.0000
 Depolar     --     0.0000                 0.0000                 0.0000
 Atom AN      X      Y      Z        X      Y      Z        X      Y      Z
   1   6     0.02   0.10  -0.00     0.03   0.07  -0.00    -0.02  -0.03   0.00
   2   6    -0.21  -0.17   0.00     0.06  -0.03  -0.00     0.14   0.09  -0.00
   3   6    -0.01  -0.07   0.00    -0.05  -0.04   0.00     0.08   0.10  -0.00
   4   6    -0.26   0.09   0.00     0.09  -0.02  -0.00     0.05  -0.06  -0.00
   5   6    -0.14  -0.05   0.00    -0.02   0.03   0.00     0.01   0.01  -0.00
   6   6     0.02  -0.07   0.00     0.05   0.00  -0.00     0.02   0.02  -0.00
   7   1    -0.10   0.05   0.00    -0.25   0.29   0.00    -0.05   0.07  -0.00
   8   1     0.14   0.01  -0.00     0.20   0.04  -0.00     0.08   0.02  -0.00
   9   8     0.13  -0.25  -0.00    -0.11   0.02   0.00    -0.32  -0.15   0.00
  10   6     0.07   0.21  -0.00     0.07  -0.01  -0.00     0.35   0.16  -0.00
  11   1    -0.07   0.08   0.01    -0.05   0.03   0.01    -0.25   0.21   0.04
  12   1     0.02  -0.24   0.00     0.02  -0.07   0.00     0.07  -0.53   0.00
  13   1    -0.07   0.08  -0.01    -0.05   0.03  -0.01    -0.25   0.21  -0.04
  14   1     0.12   0.35  -0.00     0.00   0.00  -0.00    -0.07  -0.19   0.00
  15   8     0.27   0.06  -0.00     0.03  -0.32   0.00    -0.20   0.03   0.00
  16   6    -0.14   0.07   0.00    -0.01   0.37  -0.00     0.10  -0.13  -0.00
  17   1    -0.02   0.01  -0.00    -0.29  -0.11  -0.04     0.08   0.02   0.01
  18   1     0.07  -0.04  -0.00     0.48  -0.19  -0.00    -0.14   0.06   0.00
  19   1    -0.02   0.01   0.00    -0.29  -0.11   0.04     0.08   0.02  -0.01
  20   1     0.57   0.07  -0.00    -0.22  -0.05   0.00    -0.05   0.02   0.00
                     31                     32                     33
                        a                      a                      a 
 Frequencies --  1192.0352              1256.2176              1265.0550
 Red. masses --     2.8333                 7.0027                 8.7354
 Frc consts  --     0.0000                 0.0000                 0.0000
 IR Inten    --    59.8523                97.5327               139.2507
 Raman Activ --     0.0000                 0.0000                 0.0000
 Depolar     --     0.0000                 0.0000                 0.0000
 Atom AN      X      Y      Z        X      Y      Z        X      Y      Z
   1   6    -0.05  -0.08   0.00     0.07  -0.00  -0.00     0.19   0.28  -0.00
   2   6    -0.07  -0.07   0.00     0.29  -0.03  -0.00     0.30   0.34  -0.00
   3   6    -0.20  -0.02   0.00    -0.00   0.02  -0.00    -0.20  -0.01   0.00
   4   6    -0.13   0.05   0.00    -0.26   0.43   0.00    -0.29   0.12   0.00
   5   6     0.06   0.01  -0.00    -0.19   0.02   0.00     0.04  -0.15   0.00
   6   6     0.09   0.06  -0.00    -0.09  -0.22   0.00    -0.01  -0.23   0.00
   7   1    -0.18   0.23   0.00     0.18  -0.28   0.00    -0.08   0.05   0.00
   8   1     0.60   0.14  -0.00     0.40   0.02  -0.00    -0.31  -0.13   0.00
   9   8     0.15   0.01  -0.00     0.17  -0.17  -0.00     0.18  -0.05  -0.00
  10   6    -0.08  -0.01   0.00     0.01   0.09  -0.00    -0.04   0.05   0.00
  11   1     0.06  -0.04  -0.01     0.00  -0.02   0.02     0.05  -0.03  -0.01
  12   1    -0.02   0.08  -0.00     0.01  -0.02  -0.00    -0.01  -0.05   0.00
  13   1     0.06  -0.04   0.01     0.00  -0.02  -0.02     0.05  -0.03   0.01
  14   1    -0.20  -0.53   0.00     0.09   0.19  -0.00    -0.08  -0.32   0.00
  15   8     0.11   0.11  -0.00    -0.12  -0.03   0.00    -0.17  -0.21   0.00
  16   6    -0.04  -0.06   0.00     0.04  -0.03  -0.00     0.09   0.04  -0.00
  17   1     0.07   0.02  -0.00    -0.00   0.00   0.01    -0.08  -0.05  -0.01
  18   1    -0.14   0.07   0.00    -0.02   0.00   0.00    -0.02   0.03   0.00
  19   1     0.07   0.02   0.00    -0.00   0.00  -0.01    -0.08  -0.05   0.01
  20   1     0.08   0.02  -0.00    -0.40  -0.06   0.00     0.27   0.06  -0.00
                     34                     35                     36
                        a                      a                      a 
 Frequencies --  1344.2711              1386.9058              1389.1464
 Red. masses --    11.8293                 2.5521                 2.6335
 Frc consts  --     0.0000                 0.0000                 0.0000
 IR Inten    --    56.5212                 0.5005                 2.7474
 Raman Activ --     0.0000                 0.0000                 0.0000
 Depolar     --     0.0000                 0.0000                 0.0000
 Atom AN      X      Y      Z        X      Y      Z        X      Y      Z
   1   6     0.03   0.33  -0.00    -0.04  -0.01   0.00    -0.03  -0.04   0.00
   2   6     0.17  -0.44   0.00     0.04  -0.05  -0.00     0.00  -0.08   0.00
   3   6    -0.35  -0.08   0.00     0.03   0.04  -0.00    -0.05   0.01   0.00
   4   6     0.25   0.27  -0.00    -0.00  -0.03   0.00     0.05  -0.03  -0.00
   5   6     0.34  -0.29  -0.00     0.05  -0.04  -0.00     0.05  -0.00  -0.00
   6   6    -0.36   0.05   0.00     0.01   0.05  -0.00    -0.05   0.05   0.00
   7   1    -0.02   0.06  -0.00    -0.03   0.04  -0.00    -0.00   0.02  -0.00
   8   1    -0.07   0.02   0.00    -0.03   0.01   0.00     0.03   0.02  -0.00
   9   8    -0.11   0.03   0.00    -0.05   0.11   0.00    -0.03   0.05   0.00
  10   6     0.04  -0.03  -0.00    -0.12   0.28  -0.00    -0.04   0.08   0.00
  11   1    -0.04   0.04  -0.00     0.27  -0.41   0.12     0.08  -0.12   0.03
  12   1     0.01   0.00  -0.00    -0.02  -0.52   0.00    -0.01  -0.16   0.00
  13   1    -0.04   0.04   0.00     0.27  -0.41  -0.12     0.08  -0.12  -0.03
  14   1    -0.02   0.04  -0.00    -0.01   0.02  -0.00     0.03   0.10  -0.00
  15   8     0.07   0.11  -0.00    -0.04   0.02   0.00     0.13   0.02  -0.00
  16   6    -0.05  -0.04   0.00    -0.10   0.00   0.00     0.30  -0.04  -0.00
  17   1     0.07   0.02  -0.00     0.16   0.02  -0.03    -0.48  -0.02   0.13
  18   1    -0.01  -0.01  -0.00     0.14  -0.09  -0.00    -0.45   0.27   0.00
  19   1     0.07   0.02   0.00     0.16   0.02   0.03    -0.48  -0.02  -0.13
  20   1    -0.03  -0.02   0.00    -0.07   0.00   0.00    -0.00   0.00   0.00
                     37                     38                     39
                        a                      a                      a 
 Frequencies --  1435.9133              1457.3905              1458.3378
 Red. masses --     9.6573                 1.5444                 1.5448
 Frc consts  --     0.0000                 0.0000                 0.0000
 IR Inten    --    21.0245                 7.8003                 6.3953
 Raman Activ --     0.0000                 0.0000                 0.0000
 Depolar     --     0.0000                 0.0000                 0.0000
 Atom AN      X      Y      Z        X      Y      Z        X      Y      Z
   1   6    -0.20  -0.26   0.00     0.00   0.00   0.00    -0.00   0.00   0.00
   2   6     0.50  -0.04  -0.00    -0.00  -0.00  -0.00    -0.00  -0.00  -0.00
   3   6    -0.16   0.26   0.00     0.00  -0.00  -0.00     0.00   0.00  -0.00
   4   6    -0.31  -0.33   0.00     0.00   0.00   0.00    -0.00   0.00   0.00
   5   6     0.22  -0.02  -0.00    -0.00  -0.00  -0.00     0.00  -0.00  -0.00
   6   6    -0.05   0.20  -0.00     0.00  -0.00  -0.00     0.00   0.00   0.00
   7   1    -0.10   0.18   0.00     0.00  -0.00  -0.00    -0.00   0.00  -0.00
   8   1     0.03   0.07  -0.00    -0.00  -0.00   0.00    -0.00  -0.00   0.00
   9   8     0.12   0.02  -0.00     0.00   0.00   0.03     0.00  -0.00   0.00
  10   6    -0.05  -0.05   0.00     0.00   0.00   0.22     0.00   0.00   0.01
  11   1     0.05   0.10  -0.08     0.44  -0.15  -0.09     0.02  -0.01  -0.00
  12   1    -0.01   0.04  -0.00    -0.00  -0.00  -0.71    -0.00   0.00  -0.04
  13   1     0.05   0.10   0.08    -0.44   0.15  -0.09    -0.02   0.01  -0.00
  14   1     0.08   0.29  -0.00    -0.00  -0.00   0.00    -0.00  -0.00  -0.02
  15   8    -0.10  -0.01   0.00     0.00   0.00   0.00     0.00   0.00  -0.03
  16   6    -0.02  -0.07   0.00     0.00   0.00   0.01    -0.00  -0.00  -0.22
  17   1     0.02   0.10   0.06    -0.02  -0.02  -0.00     0.34   0.31   0.09
  18   1     0.05  -0.04   0.00    -0.00  -0.00  -0.04     0.00   0.00   0.71
  19   1     0.02   0.10  -0.06     0.02   0.02  -0.00    -0.34  -0.31   0.09
  20   1     0.04   0.09  -0.00     0.00   0.00   0.02    -0.00  -0.00   0.00
                     40                     41                     42
                        a                      a                      a 
 Frequencies --  1461.5595              1472.1671              1473.8035
 Red. masses --     8.2716                 1.8454                 2.8921
 Frc consts  --     0.0000                 0.0000                 0.0000
 IR Inten    --   220.4742                20.7073                11.3360
 Raman Activ --     0.0000                 0.0000                 0.0000
 Depolar     --     0.0000                 0.0000                 0.0000
 Atom AN      X      Y      Z        X      Y      Z        X      Y      Z
   1   6    -0.21   0.07   0.00     0.06   0.04  -0.00    -0.05   0.08   0.00
   2   6    -0.05  -0.26   0.00    -0.05   0.07   0.00    -0.12  -0.11   0.00
   3   6     0.28   0.10  -0.00    -0.03  -0.05   0.00     0.16  -0.01  -0.00
   4   6    -0.33   0.21   0.00     0.07   0.02  -0.00    -0.05   0.16  -0.00
   5   6     0.02  -0.31   0.00    -0.03   0.04   0.00    -0.04  -0.12   0.00
   6   6     0.37   0.16  -0.00    -0.03  -0.06   0.00     0.17   0.03  -0.00
   7   1    -0.18   0.12   0.00     0.04  -0.04  -0.00    -0.05   0.01   0.00
   8   1    -0.28  -0.03   0.00     0.03  -0.01  -0.00    -0.11  -0.03   0.00
   9   8     0.10  -0.03  -0.00    -0.01   0.01   0.00    -0.03  -0.06   0.00
  10   6     0.10   0.02  -0.00     0.03   0.02  -0.00    -0.16  -0.07   0.00
  11   1    -0.18  -0.11   0.14    -0.07  -0.06   0.07     0.36   0.32  -0.33
  12   1     0.01   0.15  -0.00     0.00   0.04  -0.00    -0.01  -0.26   0.00
  13   1    -0.18  -0.11  -0.14    -0.07  -0.06  -0.07     0.36   0.32   0.33
  14   1    -0.09  -0.05   0.00    -0.02  -0.10   0.00    -0.05  -0.09   0.00
  15   8     0.02   0.07  -0.00     0.02  -0.07   0.00     0.03   0.02  -0.00
  16   6     0.02  -0.03   0.00    -0.03  -0.20   0.00     0.00  -0.04   0.00
  17   1    -0.03   0.03   0.03    -0.10   0.51   0.36    -0.03   0.09   0.07
  18   1    -0.03   0.01  -0.00     0.25  -0.16  -0.00     0.03  -0.02  -0.00
  19   1    -0.03   0.03  -0.03    -0.10   0.51  -0.36    -0.03   0.09  -0.07
  20   1    -0.22  -0.02   0.00     0.05  -0.01  -0.00    -0.17  -0.04   0.00
                     43                     44                     45
                        a                      a                      a 
 Frequencies --  1582.6595              1598.4175              2945.3578
 Red. masses --    11.6148                11.5728                 1.9571
 Frc consts  --     0.0000                 0.0000                 0.0000
 IR Inten    --   183.1562               254.4789                57.8701
 Raman Activ --     0.0000                 0.0000                 0.0000
 Depolar     --     0.0000                 0.0000                 0.0000
 Atom AN      X      Y      Z        X      Y      Z        X      Y      Z
   1   6     0.11   0.51  -0.00     0.22  -0.00  -0.00    -0.00  -0.00  -0.00
   2   6     0.06  -0.42   0.00    -0.30   0.20   0.00     0.00   0.00  -0.00
   3   6     0.16   0.24  -0.00     0.45   0.06  -0.00     0.00  -0.00  -0.00
   4   6    -0.15  -0.46   0.00    -0.28  -0.06   0.00    -0.00   0.00  -0.00
   5   6    -0.14   0.33  -0.00     0.41  -0.19  -0.00     0.00  -0.00   0.00
   6   6    -0.07  -0.22   0.00    -0.54  -0.01   0.00     0.00   0.00   0.00
   7   1     0.06  -0.03  -0.00    -0.02   0.11  -0.00    -0.00  -0.00  -0.00
   8   1     0.03  -0.05  -0.00     0.11   0.05  -0.00    -0.00  -0.00  -0.00
   9   8     0.04   0.02  -0.00     0.02   0.01  -0.00     0.00   0.00   0.00
  10   6    -0.02  -0.00   0.00     0.00  -0.01   0.00     0.00   0.00   0.04
  11   1     0.00  -0.01  -0.00    -0.00   0.01  -0.00    -0.03  -0.04  -0.07
  12   1    -0.01   0.02  -0.00     0.00   0.01   0.00     0.00   0.00   0.01
  13   1     0.00  -0.01   0.00    -0.00   0.01   0.00     0.03   0.04  -0.07
  14   1    -0.07  -0.13   0.00     0.05  -0.01  -0.00     0.00  -0.00  -0.00
  15   8     0.01   0.05  -0.00    -0.01  -0.04   0.00     0.00   0.00   0.01
  16   6     0.01  -0.01  -0.00     0.01   0.01  -0.00     0.00   0.00   0.29
  17   1    -0.00   0.00   0.01    -0.01   0.00   0.00    -0.15   0.37  -0.53
  18   1    -0.02   0.01   0.00     0.02  -0.00  -0.00     0.00   0.00   0.05
  19   1    -0.00   0.00  -0.01    -0.01   0.00  -0.00     0.15  -0.37  -0.53
  20   1    -0.08   0.04   0.00    -0.10  -0.01   0.00    -0.00   0.00   0.00
                     46                     47                     48
                        a                      a                      a 
 Frequencies --  2945.5540              2957.5467              2958.2229
 Red. masses --     1.9562                 1.4395                 1.4389
 Frc consts  --     0.0000                 0.0000                 0.0000
 IR Inten    --    33.7832                55.6222                35.7321
 Raman Activ --     0.0000                 0.0000                 0.0000
 Depolar     --     0.0000                 0.0000                 0.0000
 Atom AN      X      Y      Z        X      Y      Z        X      Y      Z
   1   6    -0.00  -0.00  -0.00    -0.00   0.00   0.00    -0.00   0.00   0.00
   2   6     0.00   0.00  -0.00    -0.00  -0.00   0.00    -0.00  -0.00   0.00
   3   6     0.00  -0.00   0.00     0.00   0.00  -0.00     0.00  -0.00   0.00
   4   6    -0.00   0.00   0.00    -0.00  -0.00   0.00     0.00  -0.00  -0.00
   5   6     0.00  -0.00  -0.00     0.00   0.00  -0.00    -0.00   0.00   0.00
   6   6    -0.00  -0.00   0.00    -0.00   0.00   0.00     0.00   0.00  -0.00
   7   1    -0.00   0.00  -0.00    -0.00  -0.00   0.00     0.00   0.00  -0.00
   8   1     0.00   0.00   0.00     0.00  -0.00  -0.00     0.00  -0.00   0.00
   9   8    -0.00  -0.00  -0.01     0.00  -0.00   0.00    -0.00   0.02  -0.00
  10   6    -0.00  -0.00  -0.29    -0.03  -0.03   0.00     0.13   0.14  -0.00
  11   1     0.25   0.32   0.53     0.05   0.06   0.12    -0.22  -0.29  -0.57
  12   1    -0.00  -0.00  -0.05    -0.00  -0.00   0.00     0.00   0.01  -0.00
  13   1    -0.25  -0.32   0.53     0.05   0.06  -0.12    -0.22  -0.29   0.57
  14   1     0.00  -0.00   0.00     0.01  -0.00  -0.00     0.00  -0.00  -0.00
  15   8    -0.00  -0.00   0.00     0.02  -0.01  -0.00     0.00  -0.00  -0.00
  16   6     0.00   0.00   0.04     0.06  -0.18   0.00     0.01  -0.04   0.00
  17   1    -0.02   0.05  -0.07    -0.15   0.33  -0.57    -0.03   0.07  -0.12
  18   1     0.00   0.00   0.01     0.01  -0.01  -0.00     0.00  -0.00  -0.00
  19   1     0.02  -0.05  -0.07    -0.15   0.33   0.57    -0.03   0.07   0.12
  20   1     0.00   0.00   0.00     0.00  -0.00   0.00    -0.01   0.01   0.00
                     49                     50                     51
                        a                      a                      a 
 Frequencies --  3034.1065              3034.7075              3090.0106
 Red. masses --     1.7031                 1.7055                 1.7906
 Frc consts  --     0.0000                 0.0000                 0.0000
 IR Inten    --    17.8522                15.1145                38.8235
 Raman Activ --     0.0000                 0.0000                 0.0000
 Depolar     --     0.0000                 0.0000                 0.0000
 Atom AN      X      Y      Z        X      Y      Z        X      Y      Z
   1   6     0.00  -0.00  -0.00    -0.00   0.00   0.00     0.04  -0.01  -0.00
   2   6    -0.00  -0.00   0.00     0.00   0.00  -0.00     0.00  -0.00  -0.00
   3   6    -0.00  -0.00   0.00    -0.00   0.00  -0.00     0.00  -0.00   0.00
   4   6    -0.00   0.00   0.00     0.00  -0.00  -0.00    -0.00  -0.00   0.00
   5   6     0.00   0.00  -0.00     0.00   0.00  -0.00    -0.04  -0.04   0.00
   6   6    -0.00   0.00   0.00    -0.00   0.00  -0.00    -0.05   0.25  -0.00
   7   1    -0.00  -0.00   0.00    -0.00  -0.00   0.00     0.18   0.15  -0.00
   8   1     0.00  -0.00  -0.00     0.00  -0.00   0.00     0.18  -0.90   0.00
   9   8     0.00  -0.00  -0.00    -0.01   0.01   0.00    -0.00   0.00  -0.00
  10   6     0.02   0.00  -0.00    -0.25  -0.00   0.00    -0.00  -0.00   0.00
  11   1     0.00   0.00  -0.00    -0.04  -0.01  -0.01     0.00   0.00   0.00
  12   1    -0.06   0.00   0.00     0.96  -0.00  -0.00    -0.00   0.00   0.00
  13   1     0.00   0.00   0.00    -0.04  -0.01   0.01     0.00   0.00  -0.00
  14   1    -0.01   0.00   0.00     0.00  -0.00  -0.00    -0.17   0.06   0.00
  15   8     0.01   0.00  -0.00     0.00   0.00  -0.00     0.00   0.00  -0.00
  16   6     0.12   0.22  -0.00     0.01   0.01  -0.00    -0.00  -0.00   0.00
  17   1     0.01   0.04  -0.01     0.00   0.00  -0.00    -0.00   0.00  -0.00
  18   1    -0.47  -0.84   0.00    -0.03  -0.06   0.00     0.00   0.00  -0.00
  19   1     0.01   0.04   0.01     0.00   0.00   0.00    -0.00   0.00   0.00
  20   1    -0.00   0.00  -0.00     0.00  -0.00   0.00    -0.00   0.00  -0.00
                     52                     53                     54
                        a                      a                      a 
 Frequencies --  3112.3029              3118.6592              3121.5598
 Red. masses --     1.8404                 1.8542                 1.8353
 Frc consts  --     0.0000                 0.0000                 0.0000
 IR Inten    --    69.9950                76.2211                 6.5760
 Raman Activ --     0.0000                 0.0000                 0.0000
 Depolar     --     0.0000                 0.0000                 0.0000
 Atom AN      X      Y      Z        X      Y      Z        X      Y      Z
   1   6     0.10  -0.04  -0.00    -0.21   0.07   0.00     0.10  -0.04  -0.00
   2   6     0.00   0.00  -0.00    -0.00  -0.00   0.00     0.01   0.01  -0.00
   3   6    -0.01   0.02  -0.00    -0.02   0.13  -0.00    -0.04   0.24  -0.00
   4   6     0.01  -0.00  -0.00    -0.00   0.00   0.00    -0.01   0.00   0.00
   5   6     0.19   0.16  -0.00     0.06   0.05  -0.00    -0.04  -0.04   0.00
   6   6    -0.01   0.05  -0.00    -0.02   0.07  -0.00     0.01  -0.04   0.00
   7   1    -0.66  -0.57   0.00    -0.21  -0.17   0.00     0.15   0.13  -0.00
   8   1     0.03  -0.14   0.00     0.04  -0.22   0.00    -0.03   0.12  -0.00
   9   8    -0.00   0.00   0.00    -0.00   0.00   0.00     0.00   0.00  -0.00
  10   6     0.00  -0.00  -0.00     0.00   0.00  -0.00     0.00   0.00  -0.00
  11   1    -0.00  -0.00  -0.00    -0.00  -0.00  -0.00    -0.00  -0.00  -0.01
  12   1    -0.00  -0.00   0.00    -0.00  -0.00   0.00    -0.00  -0.00   0.00
  13   1    -0.00  -0.00   0.00    -0.00  -0.00   0.00    -0.00  -0.00   0.01
  14   1    -0.36   0.13   0.00     0.73  -0.26  -0.00    -0.36   0.13   0.00
  15   8     0.00  -0.00  -0.00    -0.00   0.00   0.00    -0.00  -0.00   0.00
  16   6    -0.00  -0.00   0.00    -0.00   0.00  -0.00     0.00  -0.00   0.00
  17   1    -0.00   0.00  -0.00     0.00  -0.00   0.01    -0.00   0.00  -0.00
  18   1     0.00   0.00  -0.00    -0.00  -0.01   0.00     0.00   0.00  -0.00
  19   1    -0.00   0.00   0.00     0.00  -0.00  -0.01    -0.00   0.00   0.00
  20   1     0.01  -0.06   0.00     0.07  -0.44   0.00     0.14  -0.84   0.00
