20
 energy: -30.350870502412 gnorm: 0.000215580752 xtb: 6.4.1 (afa7bdf)
C        -1.33979005079941    1.15995398654210    0.00000265228130
C        -1.05771302782932   -0.19851398741892    0.00000403859326
C         0.26677211313532   -0.64024471078817    0.00000018621332
C         1.30561373330596    0.27522569863657   -0.00000503781807
C         1.02007990364008    1.64337010018291   -0.00000642895179
C        -0.28977570472087    2.06721630855902   -0.00000259642464
H         1.84119496807402    2.34121761735799   -0.00001051315246
H        -0.50753675372436    3.12394293530769   -0.00000368060972
O         2.62834504254441   -0.05498405092093   -0.00000907871472
C         2.98674532531112   -1.42392392335188   -0.00000794054522
H         2.61276177623275   -1.92944254426531   -0.89398805293824
H         4.07427668548227   -1.43417187882190   -0.00001171886984
H         2.61276801742288   -1.92943942371110    0.89397654729946
H        -2.35406429515762    1.52221297572039    0.00000556052105
O        -1.99386484312213   -1.19272243125847    0.00000904159108
C        -3.36275674541764   -0.83328931329815    0.00001319261514
H        -3.62018017249410   -0.26025366519976   -0.89440440846540
H        -3.90545690917571   -1.77584235819710    0.00001673204930
H        -3.62017392826567   -0.26025054312629    0.89443059057681
H         0.43370598795855   -1.70456991125489    0.00000146108113
