      -----------------------------------------------------------      
     |                   =====================                   |     
     |                           x T B                           |     
     |                   =====================                   |     
     |                         S. Grimme                         |     
     |          Mulliken Center for Theoretical Chemistry        |     
     |                    University of Bonn                     |     
      -----------------------------------------------------------      

   * xtb version 6.4.1 (afa7bdf) compiled by 'ehlert@majestix' on 2021-06-10

   xtb is free software: you can redistribute it and/or modify it under
   the terms of the GNU Lesser General Public License as published by
   the Free Software Foundation, either version 3 of the License, or
   (at your option) any later version.
   
   xtb is distributed in the hope that it will be useful,
   but WITHOUT ANY WARRANTY; without even the implied warranty of
   MERCHANTABILITY or FITNESS FOR A PARTICULAR PURPOSE.  See the
   GNU Lesser General Public License for more details.
   
   Cite this work as:
   * C. Bannwarth, E. Caldeweyher, S. Ehlert, A. Hansen, P. Pracht,
     J. Seibert, S. Spicher, S. Grimme, WIREs Comput. Mol. Sci., 2020, 11,
     e01493. DOI: 10.1002/wcms.1493
   
   for GFN2-xTB:
   * C. Bannwarth, S. Ehlert and S. Grimme., J. Chem. Theory Comput., 2019,
     15, 1652-1671. DOI: 10.1021/acs.jctc.8b01176
   for GFN1-xTB:
   * S. Grimme, C. Bannwarth, P. Shushkov, J. Chem. Theory Comput., 2017,
     13, 1989-2009. DOI: 10.1021/acs.jctc.7b00118
   for GFN0-xTB:
   * P. Pracht, E. Caldeweyher, S. Ehlert, S. Grimme, ChemRxiv, 2019, preprint.
     DOI: 10.26434/chemrxiv.8326202.v1
   for GFN-FF:
   * S. Spicher and S. Grimme, Angew. Chem. Int. Ed., 2020, 59, 15665-15673.
     DOI: 10.1002/anie.202004239
   
   for DFT-D4:
   * E. Caldeweyher, C. Bannwarth and S. Grimme, J. Chem. Phys., 2017,
     147, 034112. DOI: 10.1063/1.4993215
   * E. Caldeweyher, S. Ehlert, A. Hansen, H. Neugebauer, S. Spicher,
     C. Bannwarth and S. Grimme, J. Chem. Phys., 2019, 150, 154122.
     DOI: 10.1063/1.5090222
   * E. Caldeweyher, J.-M. Mewes, S. Ehlert and S. Grimme, Phys. Chem. Chem. Phys.
     2020, 22, 8499-8512. DOI: 10.1039/D0CP00502A
   
   for sTDA-xTB:
   * S. Grimme and C. Bannwarth, J. Chem. Phys., 2016, 145, 054103.
     DOI: 10.1063/1.4959605
   
   in the mass-spec context:
   * V. Asgeirsson, C. Bauer and S. Grimme, Chem. Sci., 2017, 8, 4879.
     DOI: 10.1039/c7sc00601b
   * J. Koopman and S. Grimme, ACS Omega 2019, 4, 12, 15120-15133.
     DOI: 10.1021/acsomega.9b02011
   
   for metadynamics refer to:
   * S. Grimme, J. Chem. Theory Comput., 2019, 155, 2847-2862
     DOI: 10.1021/acs.jctc.9b00143
   
   for SPH calculations refer to:
   * S. Spicher and S. Grimme, J. Chem. Theory Comput., 2021, 17, 1701-1714
     DOI: 10.1021/acs.jctc.0c01306
   
   with help from (in alphabetical order)
   P. Atkinson, C. Bannwarth, F. Bohle, G. Brandenburg, E. Caldeweyher
   M. Checinski, S. Dohm, S. Ehlert, S. Ehrlich, I. Gerasimov, J. Koopman
   C. Lavigne, S. Lehtola, F. März, M. Müller, F. Musil, H. Neugebauer
   J. Pisarek, C. Plett, P. Pracht, J. Seibert, P. Shushkov, S. Spicher
   M. Stahn, M. Steiner, T. Strunk, J. Stückrath, T. Rose, and J. Unsleber
   
 * started run on 2021/11/15 at 09:23:07.277     

           -------------------------------------------------
          |                Calculation Setup                |
           -------------------------------------------------

          program call               : xtb 01_2,6-dimethoxyphenol.xyz --gfn2 --chrg 0 --uhf 0 --alpb water -P 1
          coordinate file            : 01_2,6-dimethoxyphenol.xyz
          omp threads                :                     1
          number of atoms            :                    21
          number of electrons        :                    60
          charge                     :                     0
          spin                       :                   0.0
          first test random number   :      0.23020897785563

   ID    Z sym.   atoms
    1    6 C      1-6, 12, 18
    2    8 O      7, 11, 17
    3    1 H      8-10, 13-16, 19-21

           -------------------------------------------------
          |                 G F N 2 - x T B                 |
           -------------------------------------------------

        Reference                      10.1021/acs.jctc.8b01176
      * Hamiltonian:
        H0-scaling (s, p, d)           1.850000    2.230000    2.230000
        zeta-weighting                 0.500000
      * Dispersion:
        s8                             2.700000
        a1                             0.520000
        a2                             5.000000
        s9                             5.000000
      * Repulsion:
        kExp                           1.500000    1.000000
        rExp                           1.000000
      * Coulomb:
        alpha                          2.000000
        third order                    shell-resolved
        anisotropic                    true
        a3                             3.000000
        a5                             4.000000
        cn-shift                       1.200000
        cn-exp                         4.000000
        max-rad                        5.000000

      * Solvation model:               ALPB
        Solvent                        water
        Parameter file                 internal GFN2-xTB/ALPB
        Dielectric constant                8.0200E+01
        Reference state                gsolv [1 M gas/solution]
        Free energy shift                  1.0808E-03 Eh       6.7819E-01 kcal/mol
        Temperature                        2.9815E+02 K
        Density                            1.0000E+00 kg/L
        Solvent mass                       1.8000E+01 g/mol
        Interaction kernel             P16
        Born radius scaling (c1)           1.4744E+00
        Born radii integrator          GBOBC
        Born offset                        0.0000E+00 a0       0.0000E+00 AA
        H-bond correction              true
        Ion screening                  false
        Surface tension                    1.0000E-05 Eh       1.5569E+01 dyn/cm
        Grid points                               230 per atom
q/qsh data taken from xtbrestart
CAMM data taken from xtbrestart

          ...................................................
          :                      SETUP                      :
          :.................................................:
          :  # basis functions                  54          :
          :  # atomic orbitals                  54          :
          :  # shells                           32          :
          :  # electrons                        60          :
          :  max. iterations                   250          :
          :  Hamiltonian                  GFN2-xTB          :
          :  restarted?                       true          :
          :  GBSA solvation                   true          :
          :  PC potential                    false          :
          :  electronic temp.          300.0000000     K    :
          :  accuracy                    1.0000000          :
          :  -> integral cutoff          0.2500000E+02      :
          :  -> integral neglect         0.1000000E-07      :
          :  -> SCF convergence          0.1000000E-05 Eh   :
          :  -> wf. convergence          0.1000000E-03 e    :
          :  Broyden damping             0.4000000          :
          ...................................................

 iter      E             dE          RMSdq      gap      omega  full diag
   1    -34.8259940 -0.348260E+02  0.820E-05    4.09       0.0  T
   2    -34.8259940 -0.136211E-10  0.529E-05    4.09     412.3  T
   3    -34.8259940 -0.475353E-11  0.251E-05    4.09     870.6  T

   *** convergence criteria satisfied after 3 iterations ***

         #    Occupation            Energy/Eh            Energy/eV
      -------------------------------------------------------------
         1        2.0000           -0.7227067             -19.6659
       ...           ...                  ...                  ...
        24        2.0000           -0.4622400             -12.5782
        25        2.0000           -0.4593920             -12.5007
        26        2.0000           -0.4393197             -11.9545
        27        2.0000           -0.4351893             -11.8421
        28        2.0000           -0.4326922             -11.7742
        29        2.0000           -0.3793460             -10.3225
        30        2.0000           -0.3667743              -9.9804 (HOMO)
        31                         -0.2164564              -5.8901 (LUMO)
        32                         -0.2129929              -5.7958
        33                         -0.0894947              -2.4353
        34                         -0.0100659              -0.2739
        35                          0.0369124               1.0044
       ...                                ...                  ...
        54                          0.6394803              17.4011
      -------------------------------------------------------------
                  HL-Gap            0.1503179 Eh            4.0904 eV
             Fermi-level           -0.2916153 Eh           -7.9353 eV

 SCC (total)                   0 d,  0 h,  0 min,  0.010 sec
 SCC setup                      ...        0 min,  0.001 sec (  5.308%)
 Dispersion                     ...        0 min,  0.000 sec (  1.634%)
 classical contributions        ...        0 min,  0.000 sec (  0.274%)
 integral evaluation            ...        0 min,  0.002 sec ( 21.499%)
 iterations                     ...        0 min,  0.003 sec ( 27.681%)
 molecular gradient             ...        0 min,  0.004 sec ( 41.631%)
 printout                       ...        0 min,  0.000 sec (  1.741%)

         :::::::::::::::::::::::::::::::::::::::::::::::::::::
         ::                     SUMMARY                     ::
         :::::::::::::::::::::::::::::::::::::::::::::::::::::
         :: total energy             -34.422370570814 Eh    ::
         :: total w/o Gsasa/hb       -34.418254308678 Eh    ::
         :: gradient norm              0.023267147220 Eh/a0 ::
         :: HOMO-LUMO gap              4.090357696498 eV    ::
         ::.................................................::
         :: SCC energy               -34.825994014975 Eh    ::
         :: -> isotropic ES            0.063100759983 Eh    ::
         :: -> anisotropic ES          0.003451766864 Eh    ::
         :: -> anisotropic XC          0.005667993798 Eh    ::
         :: -> dispersion             -0.016507154538 Eh    ::
         :: -> Gsolv                  -0.013381866763 Eh    ::
         ::    -> Gelec               -0.009265604626 Eh    ::
         ::    -> Gsasa                0.001020859920 Eh    ::
         ::    -> Ghb                 -0.006217881754 Eh    ::
         ::    -> Gshift               0.001080759698 Eh    ::
         :: repulsion energy           0.403613237286 Eh    ::
         :: add. restraining           0.000000000000 Eh    ::
         :: total charge              -0.000000000000 e     ::
         :::::::::::::::::::::::::::::::::::::::::::::::::::::

           -------------------------------------------------
          |                Property Printout                |
           -------------------------------------------------

    * Orbital Energies and Occupations

         #    Occupation            Energy/Eh            Energy/eV
      -------------------------------------------------------------
         1        2.0000           -0.7227067             -19.6659
       ...           ...                  ...                  ...
        18        2.0000           -0.5155095             -14.0277
        19        2.0000           -0.5110763             -13.9071
        20        2.0000           -0.4953594             -13.4794
        21        2.0000           -0.4766483             -12.9703
        22        2.0000           -0.4708525             -12.8125
        23        2.0000           -0.4678435             -12.7307
        24        2.0000           -0.4622400             -12.5782
        25        2.0000           -0.4593920             -12.5007
        26        2.0000           -0.4393197             -11.9545
        27        2.0000           -0.4351893             -11.8421
        28        2.0000           -0.4326922             -11.7742
        29        2.0000           -0.3793460             -10.3225
        30        2.0000           -0.3667743              -9.9804 (HOMO)
        31                         -0.2164564              -5.8901 (LUMO)
        32                         -0.2129929              -5.7958
        33                         -0.0894947              -2.4353
        34                         -0.0100659              -0.2739
        35                          0.0369124               1.0044
        36                          0.0716130               1.9487
        37                          0.1013855               2.7588
        38                          0.1177469               3.2041
        39                          0.1214412               3.3046
        40                          0.1314483               3.5769
        41                          0.1688736               4.5953
       ...                                ...                  ...
        54                          0.6394803              17.4011
      -------------------------------------------------------------
                  HL-Gap            0.1503179 Eh            4.0904 eV
             Fermi-level           -0.2916153 Eh           -7.9353 eV

     #   Z          covCN         q      C6AA      α(0)
     1   6 C        2.916    -0.053    29.313     8.878
     2   6 C        2.909    -0.086    30.150     9.004
     3   6 C        2.859     0.103    25.711     8.311
     4   6 C        2.842     0.095    25.887     8.338
     5   6 C        2.859     0.116    25.435     8.266
     6   6 C        2.910    -0.087    30.171     9.007
     7   8 O        1.658    -0.451    21.858     6.311
     8   1 H        0.805     0.373     0.538     1.152
     9   1 H        0.925     0.056     2.250     2.345
    10   1 H        0.925     0.053     2.281     2.362
    11   8 O        1.704    -0.307    19.117     5.903
    12   6 C        3.638     0.018    20.637     6.534
    13   1 H        0.924     0.058     2.228     2.334
    14   1 H        0.924     0.083     1.951     2.184
    15   1 H        0.924     0.058     2.228     2.334
    16   1 H        0.925     0.055     2.253     2.347
    17   8 O        1.703    -0.298    18.952     5.878
    18   6 C        3.640     0.020    20.606     6.528
    19   1 H        0.924     0.081     1.967     2.194
    20   1 H        0.924     0.056     2.242     2.342
    21   1 H        0.924     0.056     2.242     2.342

 Mol. C6AA /au·bohr⁶  :       4613.452887
 Mol. C8AA /au·bohr⁸  :     106868.308654
 Mol. α(0) /au        :        104.896126


Wiberg/Mayer (AO) data.
largest (>0.10) Wiberg bond orders for each atom

 ---------------------------------------------------------------------------
     #   Z sym  total        # sym  WBO       # sym  WBO       # sym  WBO
 ---------------------------------------------------------------------------
     1   6 C    3.989 --     6 C    1.437     2 C    1.431    10 H    0.970
     2   6 C    3.981 --     1 C    1.431     3 C    1.374     9 H    0.965
     3   6 C    3.932 --     2 C    1.374     4 C    1.321    11 O    1.042
     4   6 C    3.939 --     3 C    1.321     5 C    1.319     7 O    1.063
     5   6 C    3.933 --     6 C    1.367     4 C    1.319    17 O    1.055
     6   6 C    3.981 --     1 C    1.437     5 C    1.367    16 H    0.964
     7   8 O    2.068 --     4 C    1.063     8 H    0.838
     8   1 H    0.861 --     7 O    0.838
     9   1 H    0.997 --     2 C    0.965
    10   1 H    0.997 --     1 C    0.970
    11   8 O    2.194 --     3 C    1.042    12 C    0.965
    12   6 C    3.927 --    14 H    0.978    15 H    0.977    13 H    0.977
                            11 O    0.965
    13   1 H    0.997 --    12 C    0.977
    14   1 H    0.993 --    12 C    0.978
    15   1 H    0.997 --    12 C    0.977
    16   1 H    0.997 --     6 C    0.964
    17   8 O    2.206 --     5 C    1.055    18 C    0.969
    18   6 C    3.929 --    19 H    0.978    21 H    0.977    20 H    0.977
                            17 O    0.969
    19   1 H    0.993 --    18 C    0.978
    20   1 H    0.997 --    18 C    0.977
    21   1 H    0.997 --    18 C    0.977
 ---------------------------------------------------------------------------

Topologies differ in total number of bonds
Writing topology from bond orders to xtbtopo.mol

molecular dipole:
                 x           y           z       tot (Debye)
 q only:        0.601       0.846       0.000
   full:        0.762       1.025       0.000       3.246
molecular quadrupole (traceless):
                xx          xy          yy          xz          yz          zz
 q only:       14.604      -4.183      -6.729      -0.000       0.000      -7.874
  q+dip:       14.599      -5.101      -6.748      -0.000       0.000      -7.851
   full:       14.817      -5.190      -7.873      -0.000       0.000      -6.944


           -------------------------------------------------
          | TOTAL ENERGY              -34.422370570814 Eh   |
          | GRADIENT NORM               0.023267147220 Eh/α |
          | HOMO-LUMO GAP               4.090357696498 eV   |
           -------------------------------------------------

------------------------------------------------------------------------
 * finished run on 2021/11/15 at 09:23:07.312     
------------------------------------------------------------------------
 total:
 * wall-time:     0 d,  0 h,  0 min,  0.035 sec
 *  cpu-time:     0 d,  0 h,  0 min,  0.016 sec
 * ratio c/w:     0.452 speedup
 SCF:
 * wall-time:     0 d,  0 h,  0 min,  0.010 sec
 *  cpu-time:     0 d,  0 h,  0 min,  0.016 sec
 * ratio c/w:     1.496 speedup

