      -----------------------------------------------------------      
     |                   =====================                   |     
     |                           x T B                           |     
     |                   =====================                   |     
     |                         S. Grimme                         |     
     |          Mulliken Center for Theoretical Chemistry        |     
     |                    University of Bonn                     |     
      -----------------------------------------------------------      

   * xtb version 6.4.1 (afa7bdf) compiled by 'ehlert@majestix' on 2021-06-10

   xtb is free software: you can redistribute it and/or modify it under
   the terms of the GNU Lesser General Public License as published by
   the Free Software Foundation, either version 3 of the License, or
   (at your option) any later version.
   
   xtb is distributed in the hope that it will be useful,
   but WITHOUT ANY WARRANTY; without even the implied warranty of
   MERCHANTABILITY or FITNESS FOR A PARTICULAR PURPOSE.  See the
   GNU Lesser General Public License for more details.
   
   Cite this work as:
   * C. Bannwarth, E. Caldeweyher, S. Ehlert, A. Hansen, P. Pracht,
     J. Seibert, S. Spicher, S. Grimme, WIREs Comput. Mol. Sci., 2020, 11,
     e01493. DOI: 10.1002/wcms.1493
   
   for GFN2-xTB:
   * C. Bannwarth, S. Ehlert and S. Grimme., J. Chem. Theory Comput., 2019,
     15, 1652-1671. DOI: 10.1021/acs.jctc.8b01176
   for GFN1-xTB:
   * S. Grimme, C. Bannwarth, P. Shushkov, J. Chem. Theory Comput., 2017,
     13, 1989-2009. DOI: 10.1021/acs.jctc.7b00118
   for GFN0-xTB:
   * P. Pracht, E. Caldeweyher, S. Ehlert, S. Grimme, ChemRxiv, 2019, preprint.
     DOI: 10.26434/chemrxiv.8326202.v1
   for GFN-FF:
   * S. Spicher and S. Grimme, Angew. Chem. Int. Ed., 2020, 59, 15665-15673.
     DOI: 10.1002/anie.202004239
   
   for DFT-D4:
   * E. Caldeweyher, C. Bannwarth and S. Grimme, J. Chem. Phys., 2017,
     147, 034112. DOI: 10.1063/1.4993215
   * E. Caldeweyher, S. Ehlert, A. Hansen, H. Neugebauer, S. Spicher,
     C. Bannwarth and S. Grimme, J. Chem. Phys., 2019, 150, 154122.
     DOI: 10.1063/1.5090222
   * E. Caldeweyher, J.-M. Mewes, S. Ehlert and S. Grimme, Phys. Chem. Chem. Phys.
     2020, 22, 8499-8512. DOI: 10.1039/D0CP00502A
   
   for sTDA-xTB:
   * S. Grimme and C. Bannwarth, J. Chem. Phys., 2016, 145, 054103.
     DOI: 10.1063/1.4959605
   
   in the mass-spec context:
   * V. Asgeirsson, C. Bauer and S. Grimme, Chem. Sci., 2017, 8, 4879.
     DOI: 10.1039/c7sc00601b
   * J. Koopman and S. Grimme, ACS Omega 2019, 4, 12, 15120-15133.
     DOI: 10.1021/acsomega.9b02011
   
   for metadynamics refer to:
   * S. Grimme, J. Chem. Theory Comput., 2019, 155, 2847-2862
     DOI: 10.1021/acs.jctc.9b00143
   
   for SPH calculations refer to:
   * S. Spicher and S. Grimme, J. Chem. Theory Comput., 2021, 17, 1701-1714
     DOI: 10.1021/acs.jctc.0c01306
   
   with help from (in alphabetical order)
   P. Atkinson, C. Bannwarth, F. Bohle, G. Brandenburg, E. Caldeweyher
   M. Checinski, S. Dohm, S. Ehlert, S. Ehrlich, I. Gerasimov, J. Koopman
   C. Lavigne, S. Lehtola, F. März, M. Müller, F. Musil, H. Neugebauer
   J. Pisarek, C. Plett, P. Pracht, J. Seibert, P. Shushkov, S. Spicher
   M. Stahn, M. Steiner, T. Strunk, J. Stückrath, T. Rose, and J. Unsleber
   
 * started run on 2021/11/15 at 09:36:12.736     

           -------------------------------------------------
          |                Calculation Setup                |
           -------------------------------------------------

          program call               : xtb 13_2,4,6-trichlorophenol.xyz --gfn2 --chrg 0 --uhf 0 --alpb water --ohess -P 1
          coordinate file            : 13_2,4,6-trichlorophenol.xyz
          omp threads                :                     1
          number of atoms            :                    13
          number of electrons        :                    54
          charge                     :                     0
          spin                       :                   0.0
          first test random number   :      0.54038904976708

   ID    Z sym.   atoms
    1    6 C      1-6
    2    1 H      7, 8, 10
    3    8 O      9
    4   17 Cl     11-13

           -------------------------------------------------
          |                 G F N 2 - x T B                 |
           -------------------------------------------------

        Reference                      10.1021/acs.jctc.8b01176
      * Hamiltonian:
        H0-scaling (s, p, d)           1.850000    2.230000    2.230000
        zeta-weighting                 0.500000
      * Dispersion:
        s8                             2.700000
        a1                             0.520000
        a2                             5.000000
        s9                             5.000000
      * Repulsion:
        kExp                           1.500000    1.000000
        rExp                           1.000000
      * Coulomb:
        alpha                          2.000000
        third order                    shell-resolved
        anisotropic                    true
        a3                             3.000000
        a5                             4.000000
        cn-shift                       1.200000
        cn-exp                         4.000000
        max-rad                        5.000000

      * Solvation model:               ALPB
        Solvent                        water
        Parameter file                 internal GFN2-xTB/ALPB
        Dielectric constant                8.0200E+01
        Reference state                gsolv [1 M gas/solution]
        Free energy shift                  1.0808E-03 Eh       6.7819E-01 kcal/mol
        Temperature                        2.9815E+02 K
        Density                            1.0000E+00 kg/L
        Solvent mass                       1.8000E+01 g/mol
        Interaction kernel             P16
        Born radius scaling (c1)           1.4744E+00
        Born radii integrator          GBOBC
        Born offset                        0.0000E+00 a0       0.0000E+00 AA
        H-bond correction              true
        Ion screening                  false
        Surface tension                    1.0000E-05 Eh       1.5569E+01 dyn/cm
        Grid points                               230 per atom

          ...................................................
          :                      SETUP                      :
          :.................................................:
          :  # basis functions                  61          :
          :  # atomic orbitals                  58          :
          :  # shells                           26          :
          :  # electrons                        54          :
          :  max. iterations                   250          :
          :  Hamiltonian                  GFN2-xTB          :
          :  restarted?                      false          :
          :  GBSA solvation                   true          :
          :  PC potential                    false          :
          :  electronic temp.          300.0000000     K    :
          :  accuracy                    1.0000000          :
          :  -> integral cutoff          0.2500000E+02      :
          :  -> integral neglect         0.1000000E-07      :
          :  -> SCF convergence          0.1000000E-05 Eh   :
          :  -> wf. convergence          0.1000000E-03 e    :
          :  Broyden damping             0.4000000          :
          ...................................................

 iter      E             dE          RMSdq      gap      omega  full diag
   1    -32.3611873 -0.323612E+02  0.540E+00    3.90       0.0  T
   2    -32.3808918 -0.197044E-01  0.312E+00    3.72       1.0  T
   3    -32.3752078  0.568394E-02  0.123E+00    3.64       1.0  T
   4    -32.3836808 -0.847295E-02  0.370E-01    3.69       1.0  T
   5    -32.3841481 -0.467378E-03  0.168E-01    3.70       1.0  T
   6    -32.3841950 -0.468465E-04  0.117E-01    3.68       1.0  T
   7    -32.3842618 -0.668166E-04  0.594E-02    3.69       1.0  T
   8    -32.3842715 -0.969824E-05  0.251E-02    3.69       1.1  T
   9    -32.3842770 -0.550072E-05  0.710E-03    3.69       3.9  T
  10    -32.3842771 -0.836417E-07  0.315E-03    3.69       8.8  T
  11    -32.3842771 -0.191888E-07  0.152E-03    3.69      18.2  T
  12    -32.3842771 -0.429509E-08  0.929E-04    3.69      29.9  T
  13    -32.3842771 -0.354620E-08  0.674E-04    3.69      41.2  T

   *** convergence criteria satisfied after 13 iterations ***

         #    Occupation            Energy/Eh            Energy/eV
      -------------------------------------------------------------
         1        2.0000           -1.0750582             -29.2538
       ...           ...                  ...                  ...
        21        2.0000           -0.4677320             -12.7276
        22        2.0000           -0.4446168             -12.0986
        23        2.0000           -0.4345912             -11.8258
        24        2.0000           -0.4332338             -11.7889
        25        2.0000           -0.4284003             -11.6574
        26        2.0000           -0.4150649             -11.2945
        27        2.0000           -0.3975414             -10.8177 (HOMO)
        28                         -0.2619962              -7.1293 (LUMO)
        29                         -0.2509761              -6.8294
        30                         -0.1878247              -5.1110
        31                         -0.1479391              -4.0256
        32                         -0.1429550              -3.8900
       ...                                ...                  ...
        58                          0.5862413              15.9524
      -------------------------------------------------------------
                  HL-Gap            0.1355452 Eh            3.6884 eV
             Fermi-level           -0.3297688 Eh           -8.9735 eV

 SCC (total)                   0 d,  0 h,  0 min,  0.014 sec
 SCC setup                      ...        0 min,  0.000 sec (  2.623%)
 Dispersion                     ...        0 min,  0.000 sec (  0.561%)
 classical contributions        ...        0 min,  0.000 sec (  0.137%)
 integral evaluation            ...        0 min,  0.002 sec ( 16.831%)
 iterations                     ...        0 min,  0.007 sec ( 50.340%)
 molecular gradient             ...        0 min,  0.004 sec ( 28.141%)
 printout                       ...        0 min,  0.000 sec (  1.222%)

         :::::::::::::::::::::::::::::::::::::::::::::::::::::
         ::                     SUMMARY                     ::
         :::::::::::::::::::::::::::::::::::::::::::::::::::::
         :: total energy             -32.108443835774 Eh    ::
         :: total w/o Gsasa/hb       -32.103995725287 Eh    ::
         :: gradient norm              0.020204591775 Eh/a0 ::
         :: HOMO-LUMO gap              3.688373681677 eV    ::
         ::.................................................::
         :: SCC energy               -32.384277122789 Eh    ::
         :: -> isotropic ES            0.034989123222 Eh    ::
         :: -> anisotropic ES         -0.002767141875 Eh    ::
         :: -> anisotropic XC          0.004007468668 Eh    ::
         :: -> dispersion             -0.014874365024 Eh    ::
         :: -> Gsolv                  -0.010501676901 Eh    ::
         ::    -> Gelec               -0.006053566415 Eh    ::
         ::    -> Gsasa               -0.000095238127 Eh    ::
         ::    -> Ghb                 -0.005433632058 Eh    ::
         ::    -> Gshift               0.001080759698 Eh    ::
         :: repulsion energy           0.275791608670 Eh    ::
         :: add. restraining           0.000000000000 Eh    ::
         :: total charge              -0.000000000000 e     ::
         :::::::::::::::::::::::::::::::::::::::::::::::::::::

      ----------------------------------------------------------- 
     |                   =====================                   |
     |                        A N C O P T                        |
     |                   =====================                   |
     |               Approximate Normal Coordinate               |
     |                Rational Function Optimizer                |
      ----------------------------------------------------------- 

          ...................................................
          :                      SETUP                      :
          :.................................................:
          :   optimization level            normal          :
          :   max. optcycles                   200          :
          :   ANC micro-cycles                  20          :
          :   degrees of freedom                33          :
          :.................................................:
          :   RF solver                   davidson          :
          :   write xtbopt.log                true          :
          :   linear?                        false          :
          :   energy convergence         0.5000000E-05 Eh   :
          :   grad. convergence          0.1000000E-02 Eh/α :
          :   maximium RF displ.         1.0000000          :
          :   Hlow (freq-cutoff)         0.1000000E-01      :
          :   Hmax (freq-cutoff)         5.0000000          :
          :   S6 in model hess.         20.0000000          :
          ...................................................

generating ANC from model Hessian ...
Using Lindh-Hessian (1995)
 Shifting diagonal of input Hessian by   3.361666204320444E-003
 Lowest  eigenvalues of input Hessian
    0.000000    0.000000    0.000000    0.000000    0.000000    0.000000
    0.010000    0.013860    0.014061    0.023188    0.032806    0.042595
    0.048900    0.049845    0.058604    0.075601    0.075813    0.096104
 Highest eigenvalues
    1.461652    1.598595    1.754257    1.847708    1.977982    2.070282
 

........................................................................
.............................. CYCLE    1 ..............................
........................................................................
   1    -32.3842771 -0.323843E+02  0.341E-04    3.69       0.0  T
   2    -32.3842771 -0.194582E-09  0.269E-04    3.69     103.2  T
   3    -32.3842771 -0.183455E-09  0.202E-04    3.69     137.4  T
     SCC iter.                  ...        0 min,  0.002 sec
     gradient                   ...        0 min,  0.004 sec
 * total energy  :   -32.1084438 Eh     change       -0.3013042E-08 Eh
   gradient norm :     0.0201992 Eh/α   predicted     0.0000000E+00 (-100.00%)
   displ. norm   :     0.0567487 α      lambda       -0.8120474E-03
   maximum displ.:     0.0382316 α      in ANC's #18, #17, #21, ...

........................................................................
.............................. CYCLE    2 ..............................
........................................................................
   1    -32.3922913 -0.323923E+02  0.969E-02    3.70       0.0  T
   2    -32.3923009 -0.953555E-05  0.621E-02    3.71       1.0  T
   3    -32.3923020 -0.117556E-05  0.372E-02    3.71       1.0  T
   4    -32.3923070 -0.492640E-05  0.151E-02    3.71       1.8  T
   5    -32.3923074 -0.477415E-06  0.119E-02    3.71       2.3  T
   6    -32.3923081 -0.679348E-06  0.489E-03    3.71       5.7  T
   7    -32.3923082 -0.124022E-06  0.156E-03    3.71      17.7  T
   8    -32.3923083 -0.742173E-08  0.874E-04    3.71      31.7  T
   9    -32.3923083 -0.181180E-08  0.538E-04    3.71      51.6  T
     SCC iter.                  ...        0 min,  0.005 sec
     gradient                   ...        0 min,  0.004 sec
 * total energy  :   -32.1089925 Eh     change       -0.5486634E-03 Eh
   gradient norm :     0.0118068 Eh/α   predicted    -0.4073317E-03 ( -25.76%)
   displ. norm   :     0.0323132 α      lambda       -0.2411320E-03
   maximum displ.:     0.0222550 α      in ANC's #18, #27, #17, ...

........................................................................
.............................. CYCLE    3 ..............................
........................................................................
   1    -32.3949740 -0.323950E+02  0.637E-02    3.70       0.0  T
   2    -32.3949813 -0.728054E-05  0.430E-02    3.71       1.0  T
   3    -32.3949834 -0.212835E-05  0.274E-02    3.71       1.0  T
   4    -32.3949853 -0.193435E-05  0.135E-02    3.71       2.1  T
   5    -32.3949858 -0.439521E-06  0.102E-02    3.71       2.7  T
   6    -32.3949862 -0.412757E-06  0.524E-03    3.71       5.3  T
   7    -32.3949864 -0.165727E-06  0.115E-03    3.71      24.0  T
   8    -32.3949864 -0.237603E-08  0.565E-04    3.71      49.1  T
   9    -32.3949864 -0.156027E-08  0.313E-04    3.71      88.5  T
     SCC iter.                  ...        0 min,  0.005 sec
     gradient                   ...        0 min,  0.004 sec
 * total energy  :   -32.1091327 Eh     change       -0.1401692E-03 Eh
   gradient norm :     0.0048450 Eh/α   predicted    -0.1206924E-03 ( -13.90%)
   displ. norm   :     0.0090364 α      lambda       -0.2805111E-04
   maximum displ.:     0.0049516 α      in ANC's #5, #27, #18, ...

........................................................................
.............................. CYCLE    4 ..............................
........................................................................
   1    -32.3943889 -0.323944E+02  0.159E-02    3.70       0.0  T
   2    -32.3943897 -0.729708E-06  0.117E-02    3.70       2.4  T
   3    -32.3943899 -0.236657E-06  0.774E-03    3.70       3.6  T
   4    -32.3943900 -0.109700E-06  0.418E-03    3.70       6.6  T
   5    -32.3943901 -0.502418E-07  0.291E-03    3.70       9.5  T
   6    -32.3943901 -0.283081E-07  0.164E-03    3.70      17.0  T
   7    -32.3943901 -0.161204E-07  0.483E-04    3.70      57.5  T
   8    -32.3943901 -0.853994E-09  0.127E-04    3.70     217.7  T
     SCC iter.                  ...        0 min,  0.004 sec
     gradient                   ...        0 min,  0.004 sec
 * total energy  :   -32.1091510 Eh     change       -0.1837646E-04 Eh
   gradient norm :     0.0020234 Eh/α   predicted    -0.1402518E-04 ( -23.68%)
   displ. norm   :     0.0060076 α      lambda       -0.6832017E-05
   maximum displ.:     0.0034580 α      in ANC's #5, #10, #17, ...

........................................................................
.............................. CYCLE    5 ..............................
........................................................................
   1    -32.3937986 -0.323938E+02  0.879E-03    3.70       0.0  T
   2    -32.3937987 -0.154825E-06  0.571E-03    3.70       4.9  T
   3    -32.3937988 -0.535508E-07  0.358E-03    3.70       7.8  T
   4    -32.3937988 -0.230302E-07  0.147E-03    3.70      18.8  T
   5    -32.3937988 -0.559552E-08  0.946E-04    3.70      29.3  T
   6    -32.3937988 -0.282619E-08  0.596E-04    3.70      46.6  T
     SCC iter.                  ...        0 min,  0.003 sec
     gradient                   ...        0 min,  0.004 sec
 * total energy  :   -32.1091549 Eh     change       -0.3856124E-05 Eh
   gradient norm :     0.0006318 Eh/α   predicted    -0.3416469E-05 ( -11.40%)
   displ. norm   :     0.0022872 α      lambda       -0.4307982E-06
   maximum displ.:     0.0011952 α      in ANC's #5, #8, #7, ...

   *** GEOMETRY OPTIMIZATION CONVERGED AFTER 5 ITERATIONS ***

------------------------------------------------------------------------
 total energy gain   :        -0.0007111 Eh       -0.4462 kcal/mol
 total RMSD          :         0.0245062 a0        0.0130 Å
 total power (kW/mol):        -0.3733818 (step)  -34.7915 (real)
------------------------------------------------------------------------

 ANCopt (total)                0 d,  0 h,  0 min,  0.054 sec
 optimizer setup                ...        0 min,  0.000 sec (  0.298%)
 model hessian                  ...        0 min,  0.001 sec (  1.302%)
 ANC generation                 ...        0 min,  0.000 sec (  0.350%)
 coordinate transformation      ...        0 min,  0.000 sec (  0.052%)
 single point calculation       ...        0 min,  0.051 sec ( 94.899%)
 optimization log               ...        0 min,  0.001 sec (  1.755%)
 hessian update                 ...        0 min,  0.000 sec (  0.050%)
 rational function              ...        0 min,  0.000 sec (  0.742%)

================
 final structure:
================
13
 xtb: 6.4.1 (afa7bdf)
C        -1.61112519035904   -0.04822673042883    0.00000000357023
C        -0.89188001531330   -1.23188515377560    0.00000000071334
C         0.48979996268017   -1.17074172852438    0.00000000124347
C         1.18281316316574    0.04384307562504    0.00000000410367
C         0.41251185102889    1.21289447480670    0.00000000107037
C        -0.96987309569573    1.17986038563822   -0.00000000006296
H        -1.39717431562154   -2.18318349750692   -0.00000000159110
H        -1.53099780964860    2.09868866276357   -0.00000000229378
O         2.51695503140829    0.13574496268506    0.00000000018764
H         2.92431448023109   -0.74978167600390   -0.00000000103767
Cl        1.40695013061866   -2.64742907281630   -0.00000000273428
Cl       -3.33963214426603   -0.10601356202191   -0.00000000109464
Cl        1.23940695177141    2.72905085955926   -0.00000000207429
 
 Bond Distances (Angstroems)
 ---------------------------
C1-C2=1.3850         C1-C6=1.3854         C1-Cl12=1.7295       C2-C1=1.3850         C2-C3=1.3830         C2-H7=1.0772         
C3-C2=1.3830         C3-C4=1.3984         C3-Cl11=1.7383       C4-C3=1.3984         C4-C5=1.4000         C4-O9=1.3373         
C5-C4=1.4000         C5-C6=1.3828         C5-Cl13=1.7270       C6-C1=1.3854         C6-C5=1.3828         C6-H8=1.0766         
H7-C2=1.0772         H8-C6=1.0766         O9-C4=1.3373         O9-H10=0.9747        H10-O9=0.9747        Cl11-C3=1.7383       
Cl12-C1=1.7295       Cl13-C5=1.7270       
 C  H  Rav=1.0769 sigma=0.0003  Rmin=1.0766  Rmax=1.0772     2
 C  C  Rav=1.3891 sigma=0.0072  Rmin=1.3828  Rmax=1.4000     6
 O  H  Rav=0.9747 sigma=0.0000  Rmin=0.9747  Rmax=0.9747     1
 O  C  Rav=1.3373 sigma=0.0000  Rmin=1.3373  Rmax=1.3373     1
 Cl C  Rav=1.7316 sigma=0.0049  Rmin=1.7270  Rmax=1.7383     3
 
 selected bond angles (degree)
 --------------------
C6-C1-C2=121.14                Cl12-C1-C2=119.37              Cl12-C1-C6=119.49              C3-C2-C1=118.75                
H7-C2-C1=120.74                H7-C2-C3=120.51                C4-C3-C2=122.24                Cl11-C3-C2=119.31              
Cl11-C3-C4=118.45              C5-C4-C3=116.91                O9-C4-C3=123.65                O9-C4-C5=119.44                
C6-C5-C4=122.01                Cl13-C5-C4=118.01              Cl13-C5-C6=119.98              C5-C6-C1=118.94                
H8-C6-C1=121.02                H8-C6-C5=120.04                H10-O9-C4=110.76               
 
 selected dihedral angles (degree)
 ---------------------------------
C3-C2-C1-C6=  0.00            C3-C2-C1-Cl12=180.00          H7-C2-C1-C6=180.00            H7-C2-C1-Cl12=  0.00          
C4-C3-C2-C1=  0.00            C4-C3-C2-H7=180.00            Cl11-C3-C2-C1=180.00          Cl11-C3-C2-H7=  0.00          
C5-C4-C3-C2=  0.00            C5-C4-C3-Cl11=180.00          O9-C4-C3-C2=180.00            O9-C4-C3-Cl11=  0.00          
C6-C5-C4-C3=  0.00            C6-C5-C4-O9=180.00            Cl13-C5-C4-C3=180.00          Cl13-C5-C4-O9=  0.00          
C5-C6-C1-C2=  0.00            C5-C6-C1-Cl12=180.00          H8-C6-C1-C2=180.00            H8-C6-C1-Cl12=  0.00          
C1-C6-C5-C4=  0.00            C1-C6-C5-Cl13=180.00          H8-C6-C5-C4=180.00            H8-C6-C5-Cl13=  0.00          
H10-O9-C4-C3=  0.00           H10-O9-C4-C5=180.00           
           -------------------------------------------------
          |                Final Singlepoint                |
           -------------------------------------------------

          ...................................................
          :                      SETUP                      :
          :.................................................:
          :  # basis functions                  61          :
          :  # atomic orbitals                  58          :
          :  # shells                           26          :
          :  # electrons                        54          :
          :  max. iterations                   250          :
          :  Hamiltonian                  GFN2-xTB          :
          :  restarted?                      false          :
          :  GBSA solvation                   true          :
          :  PC potential                    false          :
          :  electronic temp.          300.0000000     K    :
          :  accuracy                    1.0000000          :
          :  -> integral cutoff          0.2500000E+02      :
          :  -> integral neglect         0.1000000E-07      :
          :  -> SCF convergence          0.1000000E-05 Eh   :
          :  -> wf. convergence          0.1000000E-03 e    :
          :  Broyden damping             0.4000000          :
          ...................................................

 iter      E             dE          RMSdq      gap      omega  full diag
   1    -32.3937988 -0.323938E+02  0.274E-04    3.70       0.0  T
   2    -32.3937988 -0.243233E-09  0.204E-04    3.70     135.8  T
   3    -32.3937988 -0.113815E-09  0.166E-04    3.70     167.4  T

   *** convergence criteria satisfied after 3 iterations ***

         #    Occupation            Energy/Eh            Energy/eV
      -------------------------------------------------------------
         1        2.0000           -1.0756639             -29.2703
       ...           ...                  ...                  ...
        21        2.0000           -0.4675951             -12.7239
        22        2.0000           -0.4446451             -12.0994
        23        2.0000           -0.4346871             -11.8284
        24        2.0000           -0.4334245             -11.7941
        25        2.0000           -0.4283845             -11.6569
        26        2.0000           -0.4147927             -11.2871
        27        2.0000           -0.3961447             -10.7796 (HOMO)
        28                         -0.2602411              -7.0815 (LUMO)
        29                         -0.2491025              -6.7784
        30                         -0.1813449              -4.9346
        31                         -0.1432491              -3.8980
        32                         -0.1369605              -3.7269
       ...                                ...                  ...
        58                          0.6036394              16.4259
      -------------------------------------------------------------
                  HL-Gap            0.1359036 Eh            3.6981 eV
             Fermi-level           -0.3281929 Eh           -8.9306 eV

 SCC (total)                   0 d,  0 h,  0 min,  0.010 sec
 SCC setup                      ...        0 min,  0.000 sec (  2.480%)
 Dispersion                     ...        0 min,  0.000 sec (  0.246%)
 classical contributions        ...        0 min,  0.000 sec (  0.090%)
 integral evaluation            ...        0 min,  0.002 sec ( 20.681%)
 iterations                     ...        0 min,  0.002 sec ( 20.700%)
 molecular gradient             ...        0 min,  0.005 sec ( 53.696%)
 printout                       ...        0 min,  0.000 sec (  1.876%)

         :::::::::::::::::::::::::::::::::::::::::::::::::::::
         ::                     SUMMARY                     ::
         :::::::::::::::::::::::::::::::::::::::::::::::::::::
         :: total energy             -32.109154905757 Eh    ::
         :: total w/o Gsasa/hb       -32.104640975197 Eh    ::
         :: gradient norm              0.000632442563 Eh/a0 ::
         :: HOMO-LUMO gap              3.698124139553 eV    ::
         ::.................................................::
         :: SCC energy               -32.393798832248 Eh    ::
         :: -> isotropic ES            0.034209426218 Eh    ::
         :: -> anisotropic ES         -0.002205844722 Eh    ::
         :: -> anisotropic XC          0.003736041111 Eh    ::
         :: -> dispersion             -0.014971644172 Eh    ::
         :: -> Gsolv                  -0.010375798468 Eh    ::
         ::    -> Gelec               -0.005861867907 Eh    ::
         ::    -> Gsasa               -0.000111512134 Eh    ::
         ::    -> Ghb                 -0.005483178124 Eh    ::
         ::    -> Gshift               0.001080759698 Eh    ::
         :: repulsion energy           0.284602356837 Eh    ::
         :: add. restraining           0.000000000000 Eh    ::
         :: total charge              -0.000000000000 e     ::
         :::::::::::::::::::::::::::::::::::::::::::::::::::::

           ------------------------------------------------- 
          |                Numerical Hessian                |
           ------------------------------------------------- 
step length          :   0.00500
SCC accuracy         :   0.30000
Hessian scale factor :   1.00000
frozen atoms in %    :   0.00000    0
RMS gradient         :   0.00063
estimated CPU  time      0.01 min
estimated wall time      0.01 min

writing file <hessian>.

 projected vibrational frequencies (cm⁻¹)
eigval :       -0.00    -0.00    -0.00     0.00     0.00     0.00
eigval :       96.56   132.62   170.87   176.44   197.07   255.62
eigval :      344.19   350.33   354.90   390.05   413.09   490.15
eigval :      535.07   537.61   647.31   714.71   764.14   836.64
eigval :      840.73   870.36  1041.58  1091.47  1119.53  1189.73
eigval :     1274.12  1315.67  1379.26  1434.29  1537.02  1560.38
eigval :     3123.14  3130.00  3346.89
           -------------------------------------------------
          |                Property Printout                |
           -------------------------------------------------

    * Orbital Energies and Occupations

         #    Occupation            Energy/Eh            Energy/eV
      -------------------------------------------------------------
         1        2.0000           -1.0756645             -29.2703
       ...           ...                  ...                  ...
        15        2.0000           -0.5167511             -14.0615
        16        2.0000           -0.5148688             -14.0103
        17        2.0000           -0.5104263             -13.8894
        18        2.0000           -0.4883048             -13.2874
        19        2.0000           -0.4844219             -13.1818
        20        2.0000           -0.4699000             -12.7866
        21        2.0000           -0.4675966             -12.7240
        22        2.0000           -0.4446463             -12.0994
        23        2.0000           -0.4346884             -11.8285
        24        2.0000           -0.4334258             -11.7941
        25        2.0000           -0.4283860             -11.6570
        26        2.0000           -0.4147944             -11.2871
        27        2.0000           -0.3961466             -10.7797 (HOMO)
        28                         -0.2602430              -7.0816 (LUMO)
        29                         -0.2491043              -6.7785
        30                         -0.1813477              -4.9347
        31                         -0.1432519              -3.8981
        32                         -0.1369634              -3.7270
        33                         -0.1341539              -3.6505
        34                         -0.0090792              -0.2471
        35                         -0.0043528              -0.1184
        36                         -0.0023834              -0.0649
        37                          0.0011760               0.0320
        38                          0.0066191               0.1801
       ...                                ...                  ...
        58                          0.6036376              16.4258
      -------------------------------------------------------------
                  HL-Gap            0.1359035 Eh            3.6981 eV
             Fermi-level           -0.3281948 Eh           -8.9306 eV

     #   Z          covCN         q      C6AA      α(0)
     1   6 C        2.893     0.098    25.834     8.333
     2   6 C        2.987    -0.058    29.428     8.899
     3   6 C        2.892     0.063    26.581     8.453
     4   6 C        2.914     0.143    24.898     8.182
     5   6 C        2.893     0.081    26.200     8.392
     6   6 C        2.987    -0.059    29.460     8.903
     7   1 H        0.926     0.106     1.733     2.059
     8   1 H        0.926     0.112     1.680     2.027
     9   8 O        1.659    -0.389    20.645     6.134
    10   1 H        0.804     0.390     0.504     1.115
    11  17 Cl       0.964    -0.163   104.271    15.622
    12  17 Cl       0.968    -0.170   104.500    15.639
    13  17 Cl       0.971    -0.151   103.894    15.594

 Mol. C6AA /au·bohr⁶  :       4846.768081
 Mol. C8AA /au·bohr⁸  :     157792.037016
 Mol. α(0) /au        :        109.352502


Wiberg/Mayer (AO) data.
largest (>0.10) Wiberg bond orders for each atom

 ---------------------------------------------------------------------------
     #   Z sym  total        # sym  WBO       # sym  WBO       # sym  WBO
 ---------------------------------------------------------------------------
     1   6 C    3.919 --     6 C    1.394     2 C    1.394    12 Cl   0.974
     2   6 C    3.981 --     3 C    1.415     1 C    1.394     7 H    0.958
     3   6 C    3.912 --     2 C    1.415     4 C    1.320    11 Cl   0.968
     4   6 C    3.959 --     3 C    1.320     5 C    1.314     9 O    1.136
     5   6 C    3.920 --     6 C    1.416     4 C    1.314    13 Cl   0.984
     6   6 C    3.980 --     5 C    1.416     1 C    1.394     8 H    0.957
     7   1 H    0.988 --     2 C    0.958
     8   1 H    0.987 --     6 C    0.957
     9   8 O    2.145 --     4 C    1.136    10 H    0.818
    10   1 H    0.848 --     9 O    0.818
    11  17 Cl   1.114 --     3 C    0.968
    12  17 Cl   1.097 --     1 C    0.974
    13  17 Cl   1.119 --     5 C    0.984
 ---------------------------------------------------------------------------

Topologies differ in total number of bonds
Writing topology from bond orders to xtbtopo.mol

molecular dipole:
                 x           y           z       tot (Debye)
 q only:        0.333      -0.524      -0.000
   full:        0.241      -0.833       0.000       2.204
molecular quadrupole (traceless):
                xx          xy          yy          xz          yz          zz
 q only:       -0.813      -5.172      -2.349       0.000       0.000       3.163
  q+dip:       -1.450      -5.632       1.267       0.000       0.000       0.183
   full:       -1.632      -5.690       0.399       0.000       0.000       1.233

           -------------------------------------------------
          |                Geometry Summary                 |
           -------------------------------------------------

      molecular mass/u    :      197.4464553
   center of mass at/Å    :       -0.0049668       0.0014939       0.0000000
  moments of inertia/u·Å² :        0.5920471E+03   0.7082247E+03   0.1300272E+04
rotational constants/cm⁻¹ :        0.2847346E-01   0.2380266E-01   0.1296470E-01

 * 13 selected distances

     #   Z          #   Z                                           value/Å
     1   6 C        2   6 C                                       1.3850491
     2   6 C        3   6 C                                       1.3830322
     3   6 C        4   6 C                                       1.3983860
     4   6 C        5   6 C                                       1.4000162
     1   6 C        6   6 C                                       1.3854249
     5   6 C        6   6 C                                       1.3827796
     2   6 C        7   1 H                                       1.0771680
     6   6 C        8   1 H                                       1.0766180
     4   6 C        9   8 O                                       1.3373034
     9   8 O       10   1 H                                       0.9747303 (min)
     3   6 C       11  17 Cl                                      1.7383239 (max)
     1   6 C       12  17 Cl                                      1.7294726
     5   6 C       13  17 Cl                                      1.7269875

 * 5 distinct bonds (by element types)

   Z      Z             #   av. dist./Å        max./Å        min./Å
   1 H    6 C           2     1.0768930     1.0771680     1.0766180
   6 C    6 C           6     1.3891147     1.4000162     1.3827796
   1 H    8 O           1     0.9747303     0.9747303     0.9747303
   6 C    8 O           1     1.3373034     1.3373034     1.3373034
   6 C   17 Cl          3     1.7315947     1.7383239     1.7269875

           -------------------------------------------------
          |               Frequency Printout                |
           -------------------------------------------------
 projected vibrational frequencies (cm⁻¹)
eigval :       -0.00    -0.00    -0.00     0.00     0.00     0.00
eigval :       96.56   132.62   170.87   176.44   197.07   255.62
eigval :      344.19   350.33   354.90   390.05   413.09   490.15
eigval :      535.07   537.61   647.31   714.71   764.14   836.64
eigval :      840.73   870.36  1041.58  1091.47  1119.53  1189.73
eigval :     1274.12  1315.67  1379.26  1434.29  1537.02  1560.38
eigval :     3123.14  3130.00  3346.89
 reduced masses (amu)
   1: 30.69   2: 25.11   3: 26.59   4: 29.48   5: 25.96   6: 29.03   7: 21.90   8: 19.80
   9: 31.39  10: 31.78  11: 13.02  12: 20.07  13: 23.62  14: 12.19  15: 34.20  16: 19.45
  17:  2.63  18: 11.44  19: 10.83  20: 12.40  21: 11.98  22: 15.97  23: 15.05  24:  3.41
  25: 12.63  26:  3.73  27: 10.61  28:  4.62  29:  6.69  30:  3.22  31: 10.57  32: 11.25
  33: 10.87  34: 10.95  35: 11.77  36: 11.85  37:  1.85  38:  1.86  39:  1.86
 IR intensities (km·mol⁻¹)
   1:  0.30   2:  0.52   3:  0.50   4:  0.11   5:  0.11   6:  0.10   7:  0.04   8:  0.50
   9:  1.89  10:  3.26  11:  0.38  12:  9.46  13:  0.73  14:  0.71  15:  0.01  16:  0.02
  17:123.88  18:  2.30  19:  0.02  20: 17.24  21:  4.45  22: 79.62  23: 58.05  24: 29.19
  25:  2.08  26:  0.12  27: 10.31  28:374.07  29: 14.58  30:105.59  31: 58.05  32: 57.64
  33: 37.56  34:519.10  35: 60.69  36:  0.27  37:  0.56  38:  1.54  39:204.66
 Raman intensities (amu)
   1:  0.00   2:  0.00   3:  0.00   4:  0.00   5:  0.00   6:  0.00   7:  0.00   8:  0.00
   9:  0.00  10:  0.00  11:  0.00  12:  0.00  13:  0.00  14:  0.00  15:  0.00  16:  0.00
  17:  0.00  18:  0.00  19:  0.00  20:  0.00  21:  0.00  22:  0.00  23:  0.00  24:  0.00
  25:  0.00  26:  0.00  27:  0.00  28:  0.00  29:  0.00  30:  0.00  31:  0.00  32:  0.00
  33:  0.00  34:  0.00  35:  0.00  36:  0.00  37:  0.00  38:  0.00  39:  0.00
 output can be read by thermo (or use thermo option).
 writing <g98.out> molden fake output.
 recommended (thermochemical) frequency scaling factor: 1.0
           -------------------------------------------------
          |             Thermodynamic Functions             |
           -------------------------------------------------

Molecule has the following symmetry elements: (sigma) 
It seems to be the Cs point group
cs  symmetry found (for desy threshold:  0.10E+00) used in thermo

          ...................................................
          :                      SETUP                      :
          :.................................................:
          :  # frequencies                          33      :
          :  # imaginary freq.                       0      :
          :  linear?                             false      :
          :  only rotor calc.                    false      :
          :  symmetry                               cs      :
          :  rotational number                       1      :
          :  scaling factor                  1.0000000      :
          :  rotor cutoff                   50.0000000 cm⁻¹ :
          :  imag. cutoff                  -20.0000000 cm⁻¹ :
          :.................................................:

    mode    ω/cm⁻¹     T·S(HO)/kcal·mol⁻¹    T·S(FR)/kcal·mol⁻¹   T·S(vib)
   ------------------------------------------------------------------------
       1     96.56    -1.05023 ( 93.29%)    -0.86151 (  6.71%)    -1.03758
       2    132.62    -0.86691 ( 98.02%)    -0.76752 (  1.98%)    -0.86494
       3    170.87    -0.72326 ( 99.27%)    -0.69246 (  0.73%)    -0.72304
       4    176.44    -0.70534 ( 99.36%)    -0.68297 (  0.64%)    -0.70520
       5    197.07    -0.64410 ( 99.59%)    -0.65022 (  0.41%)    -0.64412
       6    255.62    -0.50431 ( 99.85%)    -0.57316 (  0.15%)    -0.50441
   ------------------------------------------------------------------------

   temp. (K)  partition function   enthalpy   heat capacity  entropy
                                   cal/mol     cal/K/mol   cal/K/mol   J/K/mol
 298.15  VIB   158.                 4183.314     28.390     24.043
         ROT  0.178E+07              888.752      2.981     31.586
         INT  0.282E+09             5072.067     31.371     55.629
         TR   0.268E+28             1481.254      4.968     41.727
         TOT                        6553.3205    36.3393    97.3557   407.3363

       T/K    H(0)-H(T)+PV         H(T)/Eh          T*S/Eh         G(T)/Eh
   ------------------------------------------------------------------------
    298.15    0.104434E-01    0.825737E-01    0.462568E-01    0.363169E-01
   ------------------------------------------------------------------------

         :::::::::::::::::::::::::::::::::::::::::::::::::::::
         ::                  THERMODYNAMIC                  ::
         :::::::::::::::::::::::::::::::::::::::::::::::::::::
         :: total free energy         -32.072838002680 Eh   ::
         ::.................................................::
         :: total energy              -32.109154907428 Eh   ::
         :: zero point energy           0.072130366781 Eh   ::
         :: G(RRHO) w/o ZPVE           -0.035813462033 Eh   ::
         :: G(RRHO) contrib.            0.036316904748 Eh   ::
         :::::::::::::::::::::::::::::::::::::::::::::::::::::

optimized geometry written to: xtbopt.xyz


           -------------------------------------------------
          | TOTAL ENERGY              -32.109154907428 Eh   |
          | TOTAL ENTHALPY            -32.026581159611 Eh   |
          | TOTAL FREE ENERGY         -32.072838002680 Eh   |
          | GRADIENT NORM               0.000632410730 Eh/α |
          | HOMO-LUMO GAP               3.698123127760 eV   |
           -------------------------------------------------

------------------------------------------------------------------------
 * finished run on 2021/11/15 at 09:36:13.746     
------------------------------------------------------------------------
 total:
 * wall-time:     0 d,  0 h,  0 min,  1.010 sec
 *  cpu-time:     0 d,  0 h,  0 min,  0.938 sec
 * ratio c/w:     0.929 speedup
 SCF:
 * wall-time:     0 d,  0 h,  0 min,  0.014 sec
 *  cpu-time:     0 d,  0 h,  0 min,  0.016 sec
 * ratio c/w:     1.103 speedup
 ANC optimizer:
 * wall-time:     0 d,  0 h,  0 min,  0.065 sec
 *  cpu-time:     0 d,  0 h,  0 min,  0.062 sec
 * ratio c/w:     0.956 speedup
 analytical hessian:
 * wall-time:     0 d,  0 h,  0 min,  0.886 sec
 *  cpu-time:     0 d,  0 h,  0 min,  0.828 sec
 * ratio c/w:     0.935 speedup

