 Entering Gaussian System
 *********************************************
 Gaussian 98:
 frequency output generated by the xtb code
 *********************************************
                         Standard orientation:
 --------------------------------------------------------------------
  Center     Atomic     Atomic              Coordinates (Angstroms)
  Number     Number      Type              X           Y           Z
 --------------------------------------------------------------------
    1          6             0       -1.611125   -0.048218    0.000006
    2          6             0       -0.891886   -1.231880    0.000005
    3          6             0        0.489794   -1.170744    0.000000
    4          6             0        1.182813    0.043837   -0.000004
    5          6             0        0.412518    1.212892   -0.000004
    6          6             0       -0.969867    1.179865    0.000001
    7          1             0       -1.397186   -2.183176    0.000009
    8          1             0       -1.530987    2.098697    0.000002
    9          8             0        2.516956    0.135732   -0.000009
   10          1             0        2.924311   -0.749797   -0.000009
   11         17             0        1.406936   -2.647436   -0.000000
   12         17             0       -3.339633   -0.105996    0.000012
   13         17             0        1.239421    2.729044   -0.000009
 --------------------------------------------------------------------
     1 basis functions        1 primitive gaussians
     1 alpha electrons        1 beta electrons
 
 Harmonic frequencies (cm**-1), IR intensities (km*mol⁻¹),
 Raman scattering activities (A**4/amu), Raman depolarization ratios,
 reduced masses (AMU), force constants (mDyne/A) and normal coordinates:
                      1                      2                      3
                        a                      a                      a 
 Frequencies --    96.5640               132.6247               170.8745
 Red. masses --    21.8978                19.8040                31.3855
 Frc consts  --     0.0000                 0.0000                 0.0000
 IR Inten    --     0.0395                 0.5026                 1.8886
 Raman Activ --     0.0000                 0.0000                 0.0000
 Depolar     --     0.0000                 0.0000                 0.0000
 Atom AN      X      Y      Z        X      Y      Z        X      Y      Z
   1   6     0.00   0.00   0.01    -0.00  -0.00  -0.34     0.07  -0.11   0.00
   2   6     0.00   0.00  -0.04    -0.00  -0.00  -0.39     0.06  -0.12   0.00
   3   6     0.00   0.00   0.05    -0.00  -0.00  -0.28     0.07  -0.10   0.00
   4   6     0.00   0.00   0.26    -0.00  -0.00  -0.17     0.11  -0.10  -0.00
   5   6     0.00   0.00   0.04    -0.00  -0.00  -0.28     0.09  -0.10  -0.00
   6   6    -0.00  -0.00  -0.05    -0.00  -0.00  -0.39     0.10  -0.14  -0.00
   7   1    -0.00  -0.00  -0.04    -0.00  -0.00  -0.10     0.02  -0.04   0.00
   8   1    -0.00  -0.00  -0.05    -0.00  -0.00  -0.10     0.03  -0.04  -0.00
   9   8     0.00   0.00   0.72     0.00   0.00   0.19     0.13  -0.18  -0.00
  10   1     0.00   0.00   0.21     0.00   0.00   0.08     0.02  -0.05   0.00
  11  17    -0.00  -0.00  -0.41     0.00   0.00   0.25     0.11  -0.23  -0.00
  12  17     0.00  -0.00   0.16     0.00   0.00   0.46     0.13   0.53  -0.00
  13  17    -0.00  -0.00  -0.40     0.00   0.00   0.25    -0.64   0.24   0.00
                      4                      5                      6
                        a                      a                      a 
 Frequencies --   176.4419               197.0653               255.6232
 Red. masses --    31.7783                13.0206                20.0700
 Frc consts  --     0.0000                 0.0000                 0.0000
 IR Inten    --     3.2598                 0.3782                 9.4645
 Raman Activ --     0.0000                 0.0000                 0.0000
 Depolar     --     0.0000                 0.0000                 0.0000
 Atom AN      X      Y      Z        X      Y      Z        X      Y      Z
   1   6     0.10   0.09  -0.00     0.00   0.00  -0.00    -0.02   0.10  -0.00
   2   6     0.11   0.12   0.00    -0.00  -0.00  -0.55    -0.12   0.04   0.00
   3   6     0.10   0.08   0.00    -0.00   0.00  -0.24    -0.15   0.03   0.00
   4   6     0.14   0.07  -0.00     0.00   0.00   0.01     0.00  -0.05   0.00
   5   6     0.11   0.08  -0.00     0.00   0.00   0.24     0.13   0.03  -0.00
   6   6     0.10   0.08  -0.00     0.00   0.00   0.54     0.10   0.04  -0.00
   7   1     0.03   0.04   0.00    -0.00  -0.00  -0.29    -0.05   0.02   0.00
   8   1     0.03   0.03  -0.00     0.00   0.00   0.28     0.05   0.02  -0.00
   9   8     0.17   0.06  -0.00     0.00  -0.00   0.03     0.04  -0.74   0.00
  10   1     0.04   0.02   0.00    -0.00  -0.00  -0.06    -0.12  -0.25  -0.00
  11  17    -0.62  -0.33   0.00    -0.00  -0.00   0.24     0.07   0.37  -0.00
  12  17     0.23  -0.39  -0.00     0.00  -0.00   0.00    -0.03  -0.25   0.00
  13  17    -0.12   0.36   0.00    -0.00   0.00  -0.25    -0.02   0.30  -0.00
                      7                      8                      9
                        a                      a                      a 
 Frequencies --   344.1914               350.3310               354.9048
 Red. masses --    23.6205                12.1915                34.2028
 Frc consts  --     0.0000                 0.0000                 0.0000
 IR Inten    --     0.7285                 0.7062                 0.0085
 Raman Activ --     0.0000                 0.0000                 0.0000
 Depolar     --     0.0000                 0.0000                 0.0000
 Atom AN      X      Y      Z        X      Y      Z        X      Y      Z
   1   6    -0.10  -0.03   0.00     0.00  -0.00  -0.41    -0.12   0.02  -0.00
   2   6     0.10   0.10   0.00    -0.00  -0.00  -0.21     0.03   0.05  -0.00
   3   6     0.13   0.18  -0.00     0.00   0.00   0.39     0.08  -0.04   0.00
   4   6     0.36   0.01  -0.00     0.00   0.00   0.48     0.08   0.01   0.00
   5   6     0.13  -0.18  -0.00     0.00  -0.00   0.40     0.07   0.05   0.00
   6   6     0.11  -0.14   0.00    -0.00  -0.00  -0.22     0.02  -0.01  -0.00
   7   1     0.09   0.00   0.00    -0.00  -0.00  -0.14     0.02   0.01  -0.00
   8   1     0.08  -0.01   0.00    -0.00  -0.00  -0.15     0.02   0.01  -0.00
   9   8     0.46   0.03  -0.00    -0.00   0.00  -0.30     0.10   0.01  -0.00
  10   1     0.12   0.01   0.00    -0.00  -0.00  -0.18     0.02   0.00  -0.00
  11  17    -0.21   0.35   0.00    -0.00   0.00  -0.05     0.27  -0.44  -0.00
  12  17    -0.41  -0.00   0.00     0.00   0.00   0.14    -0.68  -0.03   0.00
  13  17    -0.16  -0.34   0.00    -0.00  -0.00  -0.05     0.23   0.41  -0.00
                     10                     11                     12
                        a                      a                      a 
 Frequencies --   390.0457               413.0881               490.1547
 Red. masses --    19.4454                 2.6265                11.4405
 Frc consts  --     0.0000                 0.0000                 0.0000
 IR Inten    --     0.0242               123.8790                 2.2986
 Raman Activ --     0.0000                 0.0000                 0.0000
 Depolar     --     0.0000                 0.0000                 0.0000
 Atom AN      X      Y      Z        X      Y      Z        X      Y      Z
   1   6    -0.02   0.47  -0.00    -0.00   0.00  -0.04    -0.00  -0.00  -0.01
   2   6    -0.02   0.43  -0.00    -0.00  -0.00  -0.07    -0.00  -0.00  -0.22
   3   6     0.01  -0.04   0.00    -0.00  -0.00   0.11     0.00   0.00   0.64
   4   6     0.02  -0.06  -0.00    -0.00  -0.00   0.03     0.00   0.00  -0.02
   5   6    -0.00  -0.07  -0.00     0.00   0.00  -0.00    -0.00  -0.00  -0.63
   6   6    -0.01   0.42  -0.00     0.00   0.00   0.06     0.00   0.00   0.22
   7   1    -0.08   0.16   0.00    -0.00   0.00  -0.05    -0.00  -0.00  -0.18
   8   1     0.08   0.17  -0.00     0.00   0.00   0.05     0.00   0.00   0.18
   9   8     0.02  -0.05   0.00    -0.00  -0.00  -0.30     0.00  -0.00   0.04
  10   1     0.00  -0.01  -0.00     0.00   0.00   0.94    -0.00  -0.00  -0.12
  11  17     0.28  -0.24  -0.00     0.00   0.00  -0.03    -0.00  -0.00  -0.08
  12  17     0.02  -0.11   0.00     0.00  -0.00   0.01     0.00   0.00   0.00
  13  17    -0.30  -0.33   0.00     0.00   0.00   0.01     0.00  -0.00   0.08
                     13                     14                     15
                        a                      a                      a 
 Frequencies --   535.0665               537.6123               647.3065
 Red. masses --    10.8286                12.4038                11.9770
 Frc consts  --     0.0000                 0.0000                 0.0000
 IR Inten    --     0.0153                17.2372                 4.4469
 Raman Activ --     0.0000                 0.0000                 0.0000
 Depolar     --     0.0000                 0.0000                 0.0000
 Atom AN      X      Y      Z        X      Y      Z        X      Y      Z
   1   6    -0.00  -0.00  -0.73    -0.00  -0.13  -0.00     0.00   0.00   0.25
   2   6    -0.00   0.00   0.29     0.34   0.08   0.00    -0.00  -0.00  -0.23
   3   6    -0.00  -0.00   0.11     0.30   0.25  -0.00     0.00   0.00   0.41
   4   6    -0.00  -0.00  -0.35    -0.00   0.36  -0.00    -0.00  -0.00  -0.67
   5   6     0.00  -0.00   0.13    -0.32   0.22   0.00     0.00   0.00   0.44
   6   6     0.00   0.00   0.29    -0.36   0.05   0.00    -0.00  -0.00  -0.24
   7   1     0.00   0.00   0.26     0.17  -0.02   0.00    -0.00  -0.00  -0.07
   8   1     0.00   0.00   0.25    -0.17  -0.03   0.00    -0.00  -0.00  -0.07
   9   8    -0.00   0.00   0.13     0.06  -0.33   0.00     0.00   0.00   0.12
  10   1     0.00   0.00   0.01    -0.19  -0.18   0.00     0.00   0.00   0.02
  11  17    -0.00   0.00  -0.04    -0.01  -0.15   0.00    -0.00  -0.00  -0.02
  12  17     0.00  -0.00   0.06     0.01   0.09   0.00     0.00  -0.00  -0.00
  13  17    -0.00   0.00  -0.04     0.02  -0.16  -0.00     0.00   0.00  -0.02
                     16                     17                     18
                        a                      a                      a 
 Frequencies --   714.7093               764.1419               836.6395
 Red. masses --    15.9742                15.0502                 3.4134
 Frc consts  --     0.0000                 0.0000                 0.0000
 IR Inten    --    79.6235                58.0491                29.1943
 Raman Activ --     0.0000                 0.0000                 0.0000
 Depolar     --     0.0000                 0.0000                 0.0000
 Atom AN      X      Y      Z        X      Y      Z        X      Y      Z
   1   6    -0.42  -0.01   0.00    -0.02   0.01  -0.00     0.00  -0.00  -0.13
   2   6    -0.37   0.03   0.00     0.27   0.15  -0.00     0.00  -0.00   0.32
   3   6    -0.28   0.15   0.00     0.26  -0.42   0.00    -0.00  -0.00  -0.03
   4   6     0.19   0.02  -0.00     0.02  -0.34   0.00    -0.00  -0.00  -0.15
   5   6    -0.22  -0.12   0.00    -0.27  -0.42   0.00    -0.00   0.00  -0.02
   6   6    -0.31  -0.08   0.00    -0.33   0.14   0.00    -0.00   0.00   0.27
   7   1    -0.09   0.00   0.00     0.04   0.06   0.00    -0.00  -0.00  -0.67
   8   1    -0.08  -0.02   0.00    -0.06   0.06   0.00    -0.00  -0.00  -0.58
   9   8     0.46   0.03  -0.00     0.01  -0.04   0.00     0.00   0.00   0.02
  10   1     0.10   0.00  -0.00     0.12   0.04  -0.00     0.00   0.00   0.01
  11  17     0.12  -0.13  -0.00    -0.12   0.22   0.00    -0.00   0.00   0.01
  12  17     0.30   0.01  -0.00     0.01   0.04  -0.00    -0.00   0.00   0.02
  13  17     0.10   0.11  -0.00     0.12   0.25  -0.00    -0.00  -0.00   0.01
                     19                     20                     21
                        a                      a                      a 
 Frequencies --   840.7342               870.3647              1041.5818
 Red. masses --    12.6313                 3.7261                10.6145
 Frc consts  --     0.0000                 0.0000                 0.0000
 IR Inten    --     2.0826                 0.1160                10.3089
 Raman Activ --     0.0000                 0.0000                 0.0000
 Depolar     --     0.0000                 0.0000                 0.0000
 Atom AN      X      Y      Z        X      Y      Z        X      Y      Z
   1   6     0.46   0.02  -0.00    -0.00  -0.00   0.01    -0.19  -0.00   0.00
   2   6    -0.15  -0.46  -0.00     0.00   0.00   0.33     0.01   0.25  -0.00
   3   6    -0.07  -0.18   0.00     0.00  -0.00  -0.05     0.14  -0.49   0.00
   4   6     0.01   0.01   0.00    -0.00  -0.00   0.01    -0.21  -0.01   0.00
   5   6    -0.08   0.20   0.00     0.00   0.00   0.06     0.12   0.52  -0.00
   6   6    -0.17   0.45  -0.00    -0.00  -0.00  -0.37     0.03  -0.24   0.00
   7   1    -0.15  -0.07   0.00    -0.00  -0.00  -0.56    -0.21   0.18   0.00
   8   1    -0.16   0.06   0.00     0.00   0.00   0.66    -0.23  -0.21   0.00
   9   8     0.39   0.01  -0.00     0.00   0.00   0.00     0.24  -0.00  -0.00
  10   1     0.10   0.00  -0.00    -0.00  -0.00  -0.01     0.08   0.01  -0.00
  11  17    -0.03   0.04   0.00    -0.00   0.00   0.00    -0.03   0.07   0.00
  12  17    -0.16  -0.01   0.00    -0.00   0.00  -0.00     0.04   0.00  -0.00
  13  17    -0.04  -0.05   0.00     0.00   0.00  -0.01    -0.04  -0.08   0.00
                     22                     23                     24
                        a                      a                      a 
 Frequencies --  1091.4696              1119.5256              1189.7292
 Red. masses --     4.6212                 6.6943                 3.2167
 Frc consts  --     0.0000                 0.0000                 0.0000
 IR Inten    --   374.0690                14.5828               105.5859
 Raman Activ --     0.0000                 0.0000                 0.0000
 Depolar     --     0.0000                 0.0000                 0.0000
 Atom AN      X      Y      Z        X      Y      Z        X      Y      Z
   1   6    -0.02   0.07  -0.00    -0.48  -0.03   0.00     0.01  -0.14   0.00
   2   6    -0.01  -0.10   0.00     0.02  -0.23   0.00     0.02  -0.09   0.00
   3   6     0.07  -0.25   0.00     0.11  -0.20  -0.00     0.18   0.06  -0.00
   4   6    -0.04   0.26  -0.00    -0.14  -0.01   0.00     0.01   0.19  -0.00
   5   6    -0.03  -0.21   0.00     0.10   0.24  -0.00    -0.20   0.07   0.00
   6   6     0.03  -0.09   0.00     0.01   0.23  -0.00    -0.02  -0.11   0.00
   7   1    -0.24   0.09   0.00     0.41  -0.29  -0.00    -0.52   0.25   0.00
   8   1     0.25   0.12  -0.00     0.39   0.31  -0.00     0.49   0.27  -0.00
   9   8     0.18   0.23  -0.00     0.08  -0.01  -0.00    -0.09  -0.16   0.00
  10   1    -0.69  -0.30   0.00     0.05   0.02  -0.00     0.37   0.15  -0.00
  11  17    -0.03   0.03  -0.00    -0.02   0.03   0.00    -0.01  -0.00   0.00
  12  17    -0.00  -0.00   0.00     0.08   0.00  -0.00     0.00   0.00  -0.00
  13  17     0.02   0.02  -0.00    -0.03  -0.04   0.00     0.01  -0.00  -0.00
                     25                     26                     27
                        a                      a                      a 
 Frequencies --  1274.1233              1315.6747              1379.2642
 Red. masses --    10.5732                11.2541                10.8727
 Frc consts  --     0.0000                 0.0000                 0.0000
 IR Inten    --    58.0498                57.6446                37.5567
 Raman Activ --     0.0000                 0.0000                 0.0000
 Depolar     --     0.0000                 0.0000                 0.0000
 Atom AN      X      Y      Z        X      Y      Z        X      Y      Z
   1   6    -0.36  -0.02   0.00    -0.03   0.45  -0.00    -0.01  -0.29   0.00
   2   6    -0.09  -0.26   0.00     0.28  -0.20  -0.00     0.41   0.07  -0.00
   3   6     0.33   0.01  -0.00    -0.26  -0.22   0.00    -0.40   0.14   0.00
   4   6     0.46   0.01  -0.00     0.01   0.50  -0.00    -0.01  -0.29   0.00
   5   6     0.30   0.01  -0.00     0.28  -0.20  -0.00     0.41   0.15  -0.00
   6   6    -0.07   0.27  -0.00    -0.27  -0.21   0.00    -0.40   0.07   0.00
   7   1    -0.29   0.06   0.00     0.05  -0.05  -0.00    -0.15   0.17   0.00
   8   1    -0.28  -0.08   0.00    -0.06  -0.05   0.00     0.11   0.16  -0.00
   9   8    -0.33  -0.00   0.00    -0.07  -0.08   0.00     0.04   0.09  -0.00
  10   1    -0.09  -0.01   0.00     0.23   0.10  -0.00    -0.13  -0.05   0.00
  11  17    -0.02   0.02   0.00    -0.00  -0.01   0.00     0.01  -0.01  -0.00
  12  17     0.05   0.00  -0.00     0.00   0.00  -0.00     0.00   0.02  -0.00
  13  17    -0.02  -0.02   0.00     0.00  -0.01  -0.00    -0.02  -0.02   0.00
                     28                     29                     30
                        a                      a                      a 
 Frequencies --  1434.2907              1537.0206              1560.3770
 Red. masses --    10.9513                11.7741                11.8523
 Frc consts  --     0.0000                 0.0000                 0.0000
 IR Inten    --   519.0957                60.6885                 0.2742
 Raman Activ --     0.0000                 0.0000                 0.0000
 Depolar     --     0.0000                 0.0000                 0.0000
 Atom AN      X      Y      Z        X      Y      Z        X      Y      Z
   1   6     0.27  -0.01  -0.00     0.00   0.58  -0.00    -0.19   0.04   0.00
   2   6    -0.25   0.22   0.00     0.09  -0.30   0.00     0.44  -0.14  -0.00
   3   6    -0.09  -0.29   0.00     0.19   0.27  -0.00    -0.42  -0.14   0.00
   4   6     0.59   0.00  -0.00    -0.01  -0.47   0.00     0.33  -0.04  -0.00
   5   6    -0.07   0.29  -0.00    -0.12   0.24   0.00    -0.46   0.16   0.00
   6   6    -0.26  -0.21   0.00    -0.16  -0.34   0.00     0.41   0.11  -0.00
   7   1     0.22  -0.09  -0.00    -0.07  -0.04   0.00    -0.06   0.06  -0.00
   8   1     0.21   0.11  -0.00     0.08  -0.02  -0.00    -0.05  -0.07   0.00
   9   8    -0.23   0.01   0.00     0.02   0.04  -0.00    -0.06   0.01   0.00
  10   1    -0.08  -0.02   0.00    -0.09  -0.04   0.00    -0.03  -0.01   0.00
  11  17    -0.00   0.02  -0.00    -0.01   0.00   0.00    -0.00   0.01  -0.00
  12  17    -0.01   0.00   0.00    -0.00  -0.01   0.00    -0.00  -0.00   0.00
  13  17    -0.00  -0.02  -0.00     0.01   0.01  -0.00     0.00  -0.01  -0.00
                     31                     32                     33
                        a                      a                      a 
 Frequencies --  3123.1426              3129.9966              3346.8909
 Red. masses --     1.8530                 1.8554                 1.8618
 Frc consts  --     0.0000                 0.0000                 0.0000
 IR Inten    --     0.5591                 1.5358               204.6620
 Raman Activ --     0.0000                 0.0000                 0.0000
 Depolar     --     0.0000                 0.0000                 0.0000
 Atom AN      X      Y      Z        X      Y      Z        X      Y      Z
   1   6    -0.01   0.00   0.00     0.01   0.00  -0.00    -0.00  -0.00   0.00
   2   6    -0.13  -0.24   0.00     0.00   0.01  -0.00    -0.00  -0.00   0.00
   3   6     0.01  -0.01  -0.00    -0.00   0.00  -0.00     0.00   0.00  -0.00
   4   6     0.00   0.00  -0.00    -0.00   0.00  -0.00    -0.01   0.00   0.00
   5   6    -0.00  -0.00   0.00    -0.01  -0.01   0.00     0.00  -0.00  -0.00
   6   6     0.01  -0.01  -0.00     0.14  -0.24  -0.00    -0.00  -0.00  -0.00
   7   1     0.45   0.85  -0.00    -0.02  -0.04   0.00     0.00   0.00  -0.00
   8   1    -0.02   0.04   0.00    -0.50   0.82   0.00    -0.00   0.00  -0.00
   9   8    -0.00  -0.00   0.00     0.00  -0.00  -0.00    -0.10   0.22  -0.00
  10   1    -0.00   0.00  -0.00    -0.00   0.00   0.00     0.43  -0.87  -0.00
  11  17    -0.00   0.00   0.00    -0.00   0.00  -0.00    -0.00  -0.00   0.00
  12  17     0.00  -0.00  -0.00    -0.00  -0.00   0.00     0.00   0.00  -0.00
  13  17     0.00   0.00   0.00     0.00   0.00  -0.00    -0.00  -0.00   0.00
