      -----------------------------------------------------------      
     |                   =====================                   |     
     |                           x T B                           |     
     |                   =====================                   |     
     |                         S. Grimme                         |     
     |          Mulliken Center for Theoretical Chemistry        |     
     |                    University of Bonn                     |     
      -----------------------------------------------------------      

   * xtb version 6.4.1 (afa7bdf) compiled by 'ehlert@majestix' on 2021-06-10

   xtb is free software: you can redistribute it and/or modify it under
   the terms of the GNU Lesser General Public License as published by
   the Free Software Foundation, either version 3 of the License, or
   (at your option) any later version.
   
   xtb is distributed in the hope that it will be useful,
   but WITHOUT ANY WARRANTY; without even the implied warranty of
   MERCHANTABILITY or FITNESS FOR A PARTICULAR PURPOSE.  See the
   GNU Lesser General Public License for more details.
   
   Cite this work as:
   * C. Bannwarth, E. Caldeweyher, S. Ehlert, A. Hansen, P. Pracht,
     J. Seibert, S. Spicher, S. Grimme, WIREs Comput. Mol. Sci., 2020, 11,
     e01493. DOI: 10.1002/wcms.1493
   
   for GFN2-xTB:
   * C. Bannwarth, S. Ehlert and S. Grimme., J. Chem. Theory Comput., 2019,
     15, 1652-1671. DOI: 10.1021/acs.jctc.8b01176
   for GFN1-xTB:
   * S. Grimme, C. Bannwarth, P. Shushkov, J. Chem. Theory Comput., 2017,
     13, 1989-2009. DOI: 10.1021/acs.jctc.7b00118
   for GFN0-xTB:
   * P. Pracht, E. Caldeweyher, S. Ehlert, S. Grimme, ChemRxiv, 2019, preprint.
     DOI: 10.26434/chemrxiv.8326202.v1
   for GFN-FF:
   * S. Spicher and S. Grimme, Angew. Chem. Int. Ed., 2020, 59, 15665-15673.
     DOI: 10.1002/anie.202004239
   
   for DFT-D4:
   * E. Caldeweyher, C. Bannwarth and S. Grimme, J. Chem. Phys., 2017,
     147, 034112. DOI: 10.1063/1.4993215
   * E. Caldeweyher, S. Ehlert, A. Hansen, H. Neugebauer, S. Spicher,
     C. Bannwarth and S. Grimme, J. Chem. Phys., 2019, 150, 154122.
     DOI: 10.1063/1.5090222
   * E. Caldeweyher, J.-M. Mewes, S. Ehlert and S. Grimme, Phys. Chem. Chem. Phys.
     2020, 22, 8499-8512. DOI: 10.1039/D0CP00502A
   
   for sTDA-xTB:
   * S. Grimme and C. Bannwarth, J. Chem. Phys., 2016, 145, 054103.
     DOI: 10.1063/1.4959605
   
   in the mass-spec context:
   * V. Asgeirsson, C. Bauer and S. Grimme, Chem. Sci., 2017, 8, 4879.
     DOI: 10.1039/c7sc00601b
   * J. Koopman and S. Grimme, ACS Omega 2019, 4, 12, 15120-15133.
     DOI: 10.1021/acsomega.9b02011
   
   for metadynamics refer to:
   * S. Grimme, J. Chem. Theory Comput., 2019, 155, 2847-2862
     DOI: 10.1021/acs.jctc.9b00143
   
   for SPH calculations refer to:
   * S. Spicher and S. Grimme, J. Chem. Theory Comput., 2021, 17, 1701-1714
     DOI: 10.1021/acs.jctc.0c01306
   
   with help from (in alphabetical order)
   P. Atkinson, C. Bannwarth, F. Bohle, G. Brandenburg, E. Caldeweyher
   M. Checinski, S. Dohm, S. Ehlert, S. Ehrlich, I. Gerasimov, J. Koopman
   C. Lavigne, S. Lehtola, F. März, M. Müller, F. Musil, H. Neugebauer
   J. Pisarek, C. Plett, P. Pracht, J. Seibert, P. Shushkov, S. Spicher
   M. Stahn, M. Steiner, T. Strunk, J. Stückrath, T. Rose, and J. Unsleber
   
 * started run on 2021/11/15 at 09:23:08.388     

           -------------------------------------------------
          |                Calculation Setup                |
           -------------------------------------------------

          program call               : xtb 16_2-chlorophenol.xyz --gfn2 --chrg 0 --uhf 0 --alpb water -P 1
          coordinate file            : 16_2-chlorophenol.xyz
          omp threads                :                     1
          number of atoms            :                    13
          number of electrons        :                    42
          charge                     :                     0
          spin                       :                   0.0
          first test random number   :      0.42442609140473

   ID    Z sym.   atoms
    1    6 C      1-6
    2    1 H      7, 9-12
    3    8 O      8
    4   17 Cl     13

           -------------------------------------------------
          |                 G F N 2 - x T B                 |
           -------------------------------------------------

        Reference                      10.1021/acs.jctc.8b01176
      * Hamiltonian:
        H0-scaling (s, p, d)           1.850000    2.230000    2.230000
        zeta-weighting                 0.500000
      * Dispersion:
        s8                             2.700000
        a1                             0.520000
        a2                             5.000000
        s9                             5.000000
      * Repulsion:
        kExp                           1.500000    1.000000
        rExp                           1.000000
      * Coulomb:
        alpha                          2.000000
        third order                    shell-resolved
        anisotropic                    true
        a3                             3.000000
        a5                             4.000000
        cn-shift                       1.200000
        cn-exp                         4.000000
        max-rad                        5.000000

      * Solvation model:               ALPB
        Solvent                        water
        Parameter file                 internal GFN2-xTB/ALPB
        Dielectric constant                8.0200E+01
        Reference state                gsolv [1 M gas/solution]
        Free energy shift                  1.0808E-03 Eh       6.7819E-01 kcal/mol
        Temperature                        2.9815E+02 K
        Density                            1.0000E+00 kg/L
        Solvent mass                       1.8000E+01 g/mol
        Interaction kernel             P16
        Born radius scaling (c1)           1.4744E+00
        Born radii integrator          GBOBC
        Born offset                        0.0000E+00 a0       0.0000E+00 AA
        H-bond correction              true
        Ion screening                  false
        Surface tension                    1.0000E-05 Eh       1.5569E+01 dyn/cm
        Grid points                               230 per atom
q/qsh data taken from xtbrestart
CAMM data taken from xtbrestart

          ...................................................
          :                      SETUP                      :
          :.................................................:
          :  # basis functions                  43          :
          :  # atomic orbitals                  42          :
          :  # shells                           22          :
          :  # electrons                        42          :
          :  max. iterations                   250          :
          :  Hamiltonian                  GFN2-xTB          :
          :  restarted?                       true          :
          :  GBSA solvation                   true          :
          :  PC potential                    false          :
          :  electronic temp.          300.0000000     K    :
          :  accuracy                    1.0000000          :
          :  -> integral cutoff          0.2500000E+02      :
          :  -> integral neglect         0.1000000E-07      :
          :  -> SCF convergence          0.1000000E-05 Eh   :
          :  -> wf. convergence          0.1000000E-03 e    :
          :  Broyden damping             0.4000000          :
          ...................................................

 iter      E             dE          RMSdq      gap      omega  full diag
   1    -24.3107608 -0.243108E+02  0.129E-04    4.12       0.0  T
   2    -24.3107608 -0.684643E-10  0.734E-05    4.12     378.0  T
   3    -24.3107608 -0.174190E-10  0.481E-05    4.12     576.1  T

   *** convergence criteria satisfied after 3 iterations ***

         #    Occupation            Energy/Eh            Energy/eV
      -------------------------------------------------------------
         1        2.0000           -1.0689925             -29.0888
       ...           ...                  ...                  ...
        15        2.0000           -0.4779788             -13.0065
        16        2.0000           -0.4519630             -12.2985
        17        2.0000           -0.4512153             -12.2782
        18        2.0000           -0.4380645             -11.9203
        19        2.0000           -0.4288569             -11.6698
        20        2.0000           -0.4069076             -11.0725
        21        2.0000           -0.3886913             -10.5768 (HOMO)
        22                         -0.2371215              -6.4524 (LUMO)
        23                         -0.2264854              -6.1630
        24                         -0.1534740              -4.1762
        25                         -0.1070725              -2.9136
        26                          0.0018568               0.0505
       ...                                ...                  ...
        42                          0.6274259              17.0731
      -------------------------------------------------------------
                  HL-Gap            0.1515699 Eh            4.1244 eV
             Fermi-level           -0.3129064 Eh           -8.5146 eV

 SCC (total)                   0 d,  0 h,  0 min,  0.006 sec
 SCC setup                      ...        0 min,  0.000 sec (  5.626%)
 Dispersion                     ...        0 min,  0.000 sec (  1.455%)
 classical contributions        ...        0 min,  0.000 sec (  0.290%)
 integral evaluation            ...        0 min,  0.001 sec ( 22.943%)
 iterations                     ...        0 min,  0.002 sec ( 28.040%)
 molecular gradient             ...        0 min,  0.002 sec ( 38.774%)
 printout                       ...        0 min,  0.000 sec (  2.522%)

         :::::::::::::::::::::::::::::::::::::::::::::::::::::
         ::                     SUMMARY                     ::
         :::::::::::::::::::::::::::::::::::::::::::::::::::::
         :: total energy             -24.012812904662 Eh    ::
         :: total w/o Gsasa/hb       -24.009002834179 Eh    ::
         :: gradient norm              0.017791720181 Eh/a0 ::
         :: HOMO-LUMO gap              4.124425771562 eV    ::
         ::.................................................::
         :: SCC energy               -24.310760753222 Eh    ::
         :: -> isotropic ES            0.029057062281 Eh    ::
         :: -> anisotropic ES         -0.001931762456 Eh    ::
         :: -> anisotropic XC          0.006990821648 Eh    ::
         :: -> dispersion             -0.010923215235 Eh    ::
         :: -> Gsolv                  -0.007650824529 Eh    ::
         ::    -> Gelec               -0.003840754046 Eh    ::
         ::    -> Gsasa                0.000071009390 Eh    ::
         ::    -> Ghb                 -0.004961839571 Eh    ::
         ::    -> Gshift               0.001080759698 Eh    ::
         :: repulsion energy           0.297929174586 Eh    ::
         :: add. restraining           0.000000000000 Eh    ::
         :: total charge               0.000000000000 e     ::
         :::::::::::::::::::::::::::::::::::::::::::::::::::::

           -------------------------------------------------
          |                Property Printout                |
           -------------------------------------------------

    * Orbital Energies and Occupations

         #    Occupation            Energy/Eh            Energy/eV
      -------------------------------------------------------------
         1        2.0000           -1.0689925             -29.0888
       ...           ...                  ...                  ...
         9        2.0000           -0.5414399             -14.7333
        10        2.0000           -0.5321736             -14.4812
        11        2.0000           -0.5222747             -14.2118
        12        2.0000           -0.4981910             -13.5565
        13        2.0000           -0.4905160             -13.3476
        14        2.0000           -0.4890000             -13.3064
        15        2.0000           -0.4779788             -13.0065
        16        2.0000           -0.4519630             -12.2985
        17        2.0000           -0.4512153             -12.2782
        18        2.0000           -0.4380645             -11.9203
        19        2.0000           -0.4288569             -11.6698
        20        2.0000           -0.4069076             -11.0725
        21        2.0000           -0.3886913             -10.5768 (HOMO)
        22                         -0.2371215              -6.4524 (LUMO)
        23                         -0.2264854              -6.1630
        24                         -0.1534740              -4.1762
        25                         -0.1070725              -2.9136
        26                          0.0018568               0.0505
        27                          0.0061452               0.1672
        28                          0.0078907               0.2147
        29                          0.0209519               0.5701
        30                          0.0663371               1.8051
        31                          0.1135312               3.0893
        32                          0.1336398               3.6365
       ...                                ...                  ...
        42                          0.6274259              17.0731
      -------------------------------------------------------------
                  HL-Gap            0.1515699 Eh            4.1244 eV
             Fermi-level           -0.3129064 Eh           -8.5146 eV

     #   Z          covCN         q      C6AA      α(0)
     1   6 C        2.915    -0.045    29.107     8.847
     2   6 C        2.913    -0.037    28.921     8.818
     3   6 C        2.916    -0.059    29.460     8.900
     4   6 C        2.867     0.144    24.868     8.174
     5   6 C        2.883     0.058    26.703     8.472
     6   6 C        2.937    -0.043    29.060     8.841
     7   1 H        0.925     0.064     2.153     2.295
     8   8 O        1.659    -0.428    21.393     6.244
     9   1 H        0.805     0.366     0.553     1.168
    10   1 H        0.925     0.068     2.113     2.273
    11   1 H        0.925     0.075     2.035     2.231
    12   1 H        0.925     0.065     2.136     2.286
    13  17 Cl       0.945    -0.228   106.367    15.778

 Mol. C6AA /au·bohr⁶  :       2826.401625
 Mol. C8AA /au·bohr⁸  :      78719.182487
 Mol. α(0) /au        :         84.326854


Wiberg/Mayer (AO) data.
largest (>0.10) Wiberg bond orders for each atom

 ---------------------------------------------------------------------------
     #   Z sym  total        # sym  WBO       # sym  WBO       # sym  WBO
 ---------------------------------------------------------------------------
     1   6 C    3.988 --     6 C    1.434     2 C    1.427    12 H    0.967
     2   6 C    3.988 --     3 C    1.456     1 C    1.427    10 H    0.968
     3   6 C    3.983 --     2 C    1.456     4 C    1.359    11 H    0.964
                             6 C    0.107
     4   6 C    3.945 --     3 C    1.359     5 C    1.340     8 O    1.094
     5   6 C    3.886 --     6 C    1.418     4 C    1.340    13 Cl   0.928
     6   6 C    3.986 --     1 C    1.434     5 C    1.418     7 H    0.966
                             3 C    0.107
     7   1 H    0.996 --     6 C    0.966
     8   8 O    2.106 --     4 C    1.094     9 H    0.838
     9   1 H    0.866 --     8 O    0.838
    10   1 H    0.995 --     2 C    0.968
    11   1 H    0.994 --     3 C    0.964
    12   1 H    0.996 --     1 C    0.967
    13  17 Cl   1.067 --     5 C    0.928
 ---------------------------------------------------------------------------

Topologies differ in total number of bonds
Writing topology from bond orders to xtbtopo.mol

molecular dipole:
                 x           y           z       tot (Debye)
 q only:       -0.838      -0.096       0.000
   full:       -0.353      -0.413       0.000       1.380
molecular quadrupole (traceless):
                xx          xy          yy          xz          yz          zz
 q only:        2.058       3.742      -0.441       0.004       0.000      -1.617
  q+dip:        4.524       1.878       0.137       0.005      -0.000      -4.661
   full:        4.259       2.052      -1.553       0.004       0.001      -2.707


           -------------------------------------------------
          | TOTAL ENERGY              -24.012812904662 Eh   |
          | GRADIENT NORM               0.017791720181 Eh/α |
          | HOMO-LUMO GAP               4.124425771562 eV   |
           -------------------------------------------------

------------------------------------------------------------------------
 * finished run on 2021/11/15 at 09:23:08.420     
------------------------------------------------------------------------
 total:
 * wall-time:     0 d,  0 h,  0 min,  0.032 sec
 *  cpu-time:     0 d,  0 h,  0 min,  0.016 sec
 * ratio c/w:     0.495 speedup
 SCF:
 * wall-time:     0 d,  0 h,  0 min,  0.007 sec
 *  cpu-time:     0 d,  0 h,  0 min,  0.016 sec
 * ratio c/w:     2.400 speedup

