      -----------------------------------------------------------      
     |                   =====================                   |     
     |                           x T B                           |     
     |                   =====================                   |     
     |                         S. Grimme                         |     
     |          Mulliken Center for Theoretical Chemistry        |     
     |                    University of Bonn                     |     
      -----------------------------------------------------------      

   * xtb version 6.4.1 (afa7bdf) compiled by 'ehlert@majestix' on 2021-06-10

   xtb is free software: you can redistribute it and/or modify it under
   the terms of the GNU Lesser General Public License as published by
   the Free Software Foundation, either version 3 of the License, or
   (at your option) any later version.
   
   xtb is distributed in the hope that it will be useful,
   but WITHOUT ANY WARRANTY; without even the implied warranty of
   MERCHANTABILITY or FITNESS FOR A PARTICULAR PURPOSE.  See the
   GNU Lesser General Public License for more details.
   
   Cite this work as:
   * C. Bannwarth, E. Caldeweyher, S. Ehlert, A. Hansen, P. Pracht,
     J. Seibert, S. Spicher, S. Grimme, WIREs Comput. Mol. Sci., 2020, 11,
     e01493. DOI: 10.1002/wcms.1493
   
   for GFN2-xTB:
   * C. Bannwarth, S. Ehlert and S. Grimme., J. Chem. Theory Comput., 2019,
     15, 1652-1671. DOI: 10.1021/acs.jctc.8b01176
   for GFN1-xTB:
   * S. Grimme, C. Bannwarth, P. Shushkov, J. Chem. Theory Comput., 2017,
     13, 1989-2009. DOI: 10.1021/acs.jctc.7b00118
   for GFN0-xTB:
   * P. Pracht, E. Caldeweyher, S. Ehlert, S. Grimme, ChemRxiv, 2019, preprint.
     DOI: 10.26434/chemrxiv.8326202.v1
   for GFN-FF:
   * S. Spicher and S. Grimme, Angew. Chem. Int. Ed., 2020, 59, 15665-15673.
     DOI: 10.1002/anie.202004239
   
   for DFT-D4:
   * E. Caldeweyher, C. Bannwarth and S. Grimme, J. Chem. Phys., 2017,
     147, 034112. DOI: 10.1063/1.4993215
   * E. Caldeweyher, S. Ehlert, A. Hansen, H. Neugebauer, S. Spicher,
     C. Bannwarth and S. Grimme, J. Chem. Phys., 2019, 150, 154122.
     DOI: 10.1063/1.5090222
   * E. Caldeweyher, J.-M. Mewes, S. Ehlert and S. Grimme, Phys. Chem. Chem. Phys.
     2020, 22, 8499-8512. DOI: 10.1039/D0CP00502A
   
   for sTDA-xTB:
   * S. Grimme and C. Bannwarth, J. Chem. Phys., 2016, 145, 054103.
     DOI: 10.1063/1.4959605
   
   in the mass-spec context:
   * V. Asgeirsson, C. Bauer and S. Grimme, Chem. Sci., 2017, 8, 4879.
     DOI: 10.1039/c7sc00601b
   * J. Koopman and S. Grimme, ACS Omega 2019, 4, 12, 15120-15133.
     DOI: 10.1021/acsomega.9b02011
   
   for metadynamics refer to:
   * S. Grimme, J. Chem. Theory Comput., 2019, 155, 2847-2862
     DOI: 10.1021/acs.jctc.9b00143
   
   for SPH calculations refer to:
   * S. Spicher and S. Grimme, J. Chem. Theory Comput., 2021, 17, 1701-1714
     DOI: 10.1021/acs.jctc.0c01306
   
   with help from (in alphabetical order)
   P. Atkinson, C. Bannwarth, F. Bohle, G. Brandenburg, E. Caldeweyher
   M. Checinski, S. Dohm, S. Ehlert, S. Ehrlich, I. Gerasimov, J. Koopman
   C. Lavigne, S. Lehtola, F. März, M. Müller, F. Musil, H. Neugebauer
   J. Pisarek, C. Plett, P. Pracht, J. Seibert, P. Shushkov, S. Spicher
   M. Stahn, M. Steiner, T. Strunk, J. Stückrath, T. Rose, and J. Unsleber
   
 * started run on 2021/11/15 at 09:36:15.445     

           -------------------------------------------------
          |                Calculation Setup                |
           -------------------------------------------------

          program call               : xtb 17_2-phenylphenol.xyz --gfn2 --chrg 0 --uhf 0 --alpb water --ohess -P 1
          coordinate file            : 17_2-phenylphenol.xyz
          omp threads                :                     1
          number of atoms            :                    23
          number of electrons        :                    64
          charge                     :                     0
          spin                       :                   0.0
          first test random number   :      0.43856225175680

   ID    Z sym.   atoms
    1    6 C      1-6, 13-16, 18, 20
    2    1 H      7, 9-12, 17, 19, 21-23
    3    8 O      8

           -------------------------------------------------
          |                 G F N 2 - x T B                 |
           -------------------------------------------------

        Reference                      10.1021/acs.jctc.8b01176
      * Hamiltonian:
        H0-scaling (s, p, d)           1.850000    2.230000    2.230000
        zeta-weighting                 0.500000
      * Dispersion:
        s8                             2.700000
        a1                             0.520000
        a2                             5.000000
        s9                             5.000000
      * Repulsion:
        kExp                           1.500000    1.000000
        rExp                           1.000000
      * Coulomb:
        alpha                          2.000000
        third order                    shell-resolved
        anisotropic                    true
        a3                             3.000000
        a5                             4.000000
        cn-shift                       1.200000
        cn-exp                         4.000000
        max-rad                        5.000000

      * Solvation model:               ALPB
        Solvent                        water
        Parameter file                 internal GFN2-xTB/ALPB
        Dielectric constant                8.0200E+01
        Reference state                gsolv [1 M gas/solution]
        Free energy shift                  1.0808E-03 Eh       6.7819E-01 kcal/mol
        Temperature                        2.9815E+02 K
        Density                            1.0000E+00 kg/L
        Solvent mass                       1.8000E+01 g/mol
        Interaction kernel             P16
        Born radius scaling (c1)           1.4744E+00
        Born radii integrator          GBOBC
        Born offset                        0.0000E+00 a0       0.0000E+00 AA
        H-bond correction              true
        Ion screening                  false
        Surface tension                    1.0000E-05 Eh       1.5569E+01 dyn/cm
        Grid points                               230 per atom

          ...................................................
          :                      SETUP                      :
          :.................................................:
          :  # basis functions                  62          :
          :  # atomic orbitals                  62          :
          :  # shells                           36          :
          :  # electrons                        64          :
          :  max. iterations                   250          :
          :  Hamiltonian                  GFN2-xTB          :
          :  restarted?                      false          :
          :  GBSA solvation                   true          :
          :  PC potential                    false          :
          :  electronic temp.          300.0000000     K    :
          :  accuracy                    1.0000000          :
          :  -> integral cutoff          0.2500000E+02      :
          :  -> integral neglect         0.1000000E-07      :
          :  -> SCF convergence          0.1000000E-05 Eh   :
          :  -> wf. convergence          0.1000000E-03 e    :
          :  Broyden damping             0.4000000          :
          ...................................................

 iter      E             dE          RMSdq      gap      omega  full diag
   1    -35.4178441 -0.354178E+02  0.453E+00    3.71       0.0  T
   2    -35.4281531 -0.103090E-01  0.267E+00    3.65       1.0  T
   3    -35.4190027  0.915037E-02  0.942E-01    3.56       1.0  T
   4    -35.4312113 -0.122086E-01  0.166E-01    3.58       1.0  T
   5    -35.4313478 -0.136486E-03  0.624E-02    3.61       1.0  T
   6    -35.4313788 -0.310227E-04  0.300E-02    3.61       1.0  T
   7    -35.4313797 -0.870229E-06  0.782E-03    3.61       2.7  T
   8    -35.4313804 -0.675366E-06  0.380E-03    3.61       5.5  T
   9    -35.4313804 -0.429137E-07  0.197E-03    3.61      10.6  T
  10    -35.4313805 -0.227974E-07  0.921E-04    3.61      22.6  T
  11    -35.4313805 -0.333068E-08  0.409E-04    3.61      51.0  T

   *** convergence criteria satisfied after 11 iterations ***

         #    Occupation            Energy/Eh            Energy/eV
      -------------------------------------------------------------
         1        2.0000           -0.7065589             -19.2264
       ...           ...                  ...                  ...
        26        2.0000           -0.4317041             -11.7473
        27        2.0000           -0.4252904             -11.5727
        28        2.0000           -0.4160727             -11.3219
        29        2.0000           -0.4113290             -11.1928
        30        2.0000           -0.4054072             -11.0317
        31        2.0000           -0.3928894             -10.6911
        32        2.0000           -0.3773346             -10.2678 (HOMO)
        33                         -0.2447655              -6.6604 (LUMO)
        34                         -0.2277587              -6.1976
        35                         -0.2171796              -5.9098
        36                         -0.2045157              -5.5652
        37                         -0.1073035              -2.9199
       ...                                ...                  ...
        62                          0.6596125              17.9490
      -------------------------------------------------------------
                  HL-Gap            0.1325691 Eh            3.6074 eV
             Fermi-level           -0.3110500 Eh           -8.4641 eV

 SCC (total)                   0 d,  0 h,  0 min,  0.018 sec
 SCC setup                      ...        0 min,  0.001 sec (  3.301%)
 Dispersion                     ...        0 min,  0.000 sec (  1.205%)
 classical contributions        ...        0 min,  0.000 sec (  0.177%)
 integral evaluation            ...        0 min,  0.003 sec ( 15.975%)
 iterations                     ...        0 min,  0.008 sec ( 46.996%)
 molecular gradient             ...        0 min,  0.005 sec ( 31.068%)
 printout                       ...        0 min,  0.000 sec (  1.137%)

         :::::::::::::::::::::::::::::::::::::::::::::::::::::
         ::                     SUMMARY                     ::
         :::::::::::::::::::::::::::::::::::::::::::::::::::::
         :: total energy             -34.844671319206 Eh    ::
         :: total w/o Gsasa/hb       -34.841313368616 Eh    ::
         :: gradient norm              0.022710613780 Eh/a0 ::
         :: HOMO-LUMO gap              3.607388214903 eV    ::
         ::.................................................::
         :: SCC energy               -35.431380461346 Eh    ::
         :: -> isotropic ES            0.027359043873 Eh    ::
         :: -> anisotropic ES          0.003771337912 Eh    ::
         :: -> anisotropic XC          0.019281336773 Eh    ::
         :: -> dispersion             -0.022385205566 Eh    ::
         :: -> Gsolv                  -0.006521432809 Eh    ::
         ::    -> Gelec               -0.003163482219 Eh    ::
         ::    -> Gsasa               -0.000880935059 Eh    ::
         ::    -> Ghb                 -0.003557775230 Eh    ::
         ::    -> Gshift               0.001080759698 Eh    ::
         :: repulsion energy           0.586674039775 Eh    ::
         :: add. restraining           0.000000000000 Eh    ::
         :: total charge               0.000000000000 e     ::
         :::::::::::::::::::::::::::::::::::::::::::::::::::::

      ----------------------------------------------------------- 
     |                   =====================                   |
     |                        A N C O P T                        |
     |                   =====================                   |
     |               Approximate Normal Coordinate               |
     |                Rational Function Optimizer                |
      ----------------------------------------------------------- 

          ...................................................
          :                      SETUP                      :
          :.................................................:
          :   optimization level            normal          :
          :   max. optcycles                   200          :
          :   ANC micro-cycles                  20          :
          :   degrees of freedom                63          :
          :.................................................:
          :   RF solver                   davidson          :
          :   write xtbopt.log                true          :
          :   linear?                        false          :
          :   energy convergence         0.5000000E-05 Eh   :
          :   grad. convergence          0.1000000E-02 Eh/α :
          :   maximium RF displ.         1.0000000          :
          :   Hlow (freq-cutoff)         0.1000000E-01      :
          :   Hmax (freq-cutoff)         5.0000000          :
          :   S6 in model hess.         20.0000000          :
          ...................................................

generating ANC from model Hessian ...
Using Lindh-Hessian (1995)
 Shifting diagonal of input Hessian by   8.491720058777540E-003
 Lowest  eigenvalues of input Hessian
    0.000000    0.000000    0.000000    0.000000    0.000000    0.000000
    0.010000    0.010426    0.010897    0.015431    0.019165    0.022706
    0.023111    0.028734    0.029633    0.031707    0.034732    0.036912
 Highest eigenvalues
    1.828445    1.859835    1.929485    1.935629    2.008215    2.034321
 

........................................................................
.............................. CYCLE    1 ..............................
........................................................................
   1    -35.4313805 -0.354314E+02  0.222E-04    3.61       0.0  T
   2    -35.4313805 -0.270653E-09  0.131E-04    3.61     158.6  T
   3    -35.4313805 -0.897700E-10  0.860E-05    3.61     242.4  T
     SCC iter.                  ...        0 min,  0.003 sec
     gradient                   ...        0 min,  0.005 sec
 * total energy  :   -34.8446713 Eh     change       -0.1600185E-08 Eh
   gradient norm :     0.0227123 Eh/α   predicted     0.0000000E+00 (-100.00%)
   displ. norm   :     0.1553839 α      lambda       -0.2174335E-02
   maximum displ.:     0.0821504 α      in ANC's #10, #9, #34, ...

........................................................................
.............................. CYCLE    2 ..............................
........................................................................
   1    -35.4571377 -0.354571E+02  0.108E-01    3.66       0.0  T
   2    -35.4571420 -0.431000E-05  0.647E-02    3.66       1.0  T
   3    -35.4571351  0.684789E-05  0.230E-02    3.66       1.0  T
   4    -35.4571439 -0.880100E-05  0.244E-03    3.66       8.6  T
   5    -35.4571440 -0.200396E-07  0.137E-03    3.66      15.2  T
   6    -35.4571440 -0.123422E-07  0.490E-04    3.66      42.6  T
   7    -35.4571440 -0.505310E-09  0.227E-04    3.66      91.8  T
     SCC iter.                  ...        0 min,  0.005 sec
     gradient                   ...        0 min,  0.005 sec
 * total energy  :   -34.8460123 Eh     change       -0.1340996E-02 Eh
   gradient norm :     0.0064692 Eh/α   predicted    -0.1113424E-02 ( -16.97%)
   displ. norm   :     0.0859401 α      lambda       -0.2208027E-03
   maximum displ.:     0.0418983 α      in ANC's #9, #10, #1, ...

........................................................................
.............................. CYCLE    3 ..............................
........................................................................
   1    -35.4641558 -0.354642E+02  0.510E-02    3.67       0.0  T
   2    -35.4641575 -0.176081E-05  0.309E-02    3.68       1.0  T
   3    -35.4641558  0.171351E-05  0.123E-02    3.68       1.7  T
   4    -35.4641583 -0.244899E-05  0.107E-03    3.68      19.4  T
   5    -35.4641583 -0.746054E-08  0.549E-04    3.68      38.0  T
   6    -35.4641583 -0.187092E-08  0.249E-04    3.68      83.8  T
     SCC iter.                  ...        0 min,  0.004 sec
     gradient                   ...        0 min,  0.005 sec
 * total energy  :   -34.8461403 Eh     change       -0.1280315E-03 Eh
   gradient norm :     0.0028199 Eh/α   predicted    -0.1113691E-03 ( -13.01%)
   displ. norm   :     0.0489777 α      lambda       -0.3150690E-04
   maximum displ.:     0.0355404 α      in ANC's #1, #2, #9, ...

........................................................................
.............................. CYCLE    4 ..............................
........................................................................
   1    -35.4644716 -0.354645E+02  0.248E-02    3.68       0.0  T
   2    -35.4644720 -0.373799E-06  0.147E-02    3.68       1.4  T
   3    -35.4644717  0.326390E-06  0.552E-03    3.68       3.8  T
   4    -35.4644721 -0.458247E-06  0.496E-04    3.68      42.0  T
   5    -35.4644721 -0.158263E-08  0.242E-04    3.68      86.3  T
     SCC iter.                  ...        0 min,  0.004 sec
     gradient                   ...        0 min,  0.005 sec
 * total energy  :   -34.8461644 Eh     change       -0.2410095E-04 Eh
   gradient norm :     0.0013392 Eh/α   predicted    -0.1595343E-04 ( -33.81%)
   displ. norm   :     0.0910115 α      lambda       -0.2440300E-04
   maximum displ.:     0.0692695 α      in ANC's #1, #2, #3, ...

........................................................................
.............................. CYCLE    5 ..............................
........................................................................
   1    -35.4634360 -0.354634E+02  0.435E-02    3.68       0.0  T
   2    -35.4634367 -0.657060E-06  0.256E-02    3.68       1.0  T
   3    -35.4634358  0.815260E-06  0.813E-03    3.68       2.6  T
   4    -35.4634369 -0.105165E-05  0.728E-04    3.68      28.7  T
   5    -35.4634369 -0.337798E-08  0.374E-04    3.68      55.8  T
   6    -35.4634369 -0.115671E-08  0.176E-04    3.68     118.7  T
     SCC iter.                  ...        0 min,  0.004 sec
     gradient                   ...        0 min,  0.005 sec
 * total energy  :   -34.8461859 Eh     change       -0.2148547E-04 Eh
   gradient norm :     0.0016066 Eh/α   predicted    -0.1225031E-04 ( -42.98%)
   displ. norm   :     0.0463993 α      lambda       -0.8368344E-05
   maximum displ.:     0.0347175 α      in ANC's #1, #2, #3, ...

........................................................................
.............................. CYCLE    6 ..............................
........................................................................
   1    -35.4633333 -0.354633E+02  0.230E-02    3.69       0.0  T
   2    -35.4633333 -0.364424E-07  0.135E-02    3.69       1.5  T
   3    -35.4633333  0.718419E-07  0.207E-03    3.69      10.1  T
   4    -35.4633334 -0.886380E-07  0.238E-04    3.69      87.6  T
   5    -35.4633334 -0.216986E-09  0.136E-04    3.69     153.7  T
     SCC iter.                  ...        0 min,  0.004 sec
     gradient                   ...        0 min,  0.005 sec
 * total energy  :   -34.8461968 Eh     change       -0.1083136E-04 Eh
   gradient norm :     0.0013292 Eh/α   predicted    -0.4193673E-05 ( -61.28%)
   displ. norm   :     0.0718231 α      lambda       -0.1153089E-04
   maximum displ.:     0.0511342 α      in ANC's #1, #2, #4, ...

........................................................................
.............................. CYCLE    7 ..............................
........................................................................
   1    -35.4635328 -0.354635E+02  0.365E-02    3.70       0.0  T
   2    -35.4635330 -0.168430E-06  0.215E-02    3.70       1.0  T
   3    -35.4635327  0.248531E-06  0.429E-03    3.70       4.9  T
   4    -35.4635330 -0.310112E-06  0.511E-04    3.70      40.8  T
   5    -35.4635330 -0.121539E-08  0.264E-04    3.70      78.9  T
     SCC iter.                  ...        0 min,  0.004 sec
     gradient                   ...        0 min,  0.005 sec
 * total energy  :   -34.8462099 Eh     change       -0.1311821E-04 Eh
   gradient norm :     0.0004894 Eh/α   predicted    -0.5780308E-05 ( -55.94%)
   displ. norm   :     0.0720551 α      lambda       -0.6520623E-05
   maximum displ.:     0.0519580 α      in ANC's #1, #2, #4, ...

........................................................................
.............................. CYCLE    8 ..............................
........................................................................
   1    -35.4636525 -0.354637E+02  0.364E-02    3.70       0.0  T
   2    -35.4636526 -0.863824E-07  0.214E-02    3.70       1.0  T
   3    -35.4636525  0.122618E-06  0.297E-03    3.70       7.0  T
   4    -35.4636526 -0.159824E-06  0.449E-04    3.70      46.5  T
   5    -35.4636526 -0.491113E-09  0.250E-04    3.70      83.6  T
     SCC iter.                  ...        0 min,  0.004 sec
     gradient                   ...        0 min,  0.005 sec
 * total energy  :   -34.8462170 Eh     change       -0.7105068E-05 Eh
   gradient norm :     0.0004750 Eh/α   predicted    -0.3268917E-05 ( -53.99%)
   displ. norm   :     0.0527380 α      lambda       -0.2984950E-05
   maximum displ.:     0.0384660 α      in ANC's #1, #2, #4, ...

........................................................................
.............................. CYCLE    9 ..............................
........................................................................
   1    -35.4637354 -0.354637E+02  0.271E-02    3.71       0.0  T
   2    -35.4637355 -0.282276E-07  0.159E-02    3.71       1.3  T
   3    -35.4637354  0.180019E-07  0.122E-03    3.71      17.1  T
   4    -35.4637355 -0.311872E-07  0.296E-04    3.71      70.4  T
   5    -35.4637355  0.205844E-10  0.145E-04    3.71     144.2  T
     SCC iter.                  ...        0 min,  0.004 sec
     gradient                   ...        0 min,  0.005 sec
 * total energy  :   -34.8462199 Eh     change       -0.2951726E-05 Eh
   gradient norm :     0.0003959 Eh/α   predicted    -0.1495701E-05 ( -49.33%)
   displ. norm   :     0.0314413 α      lambda       -0.1171707E-05
   maximum displ.:     0.0230320 α      in ANC's #1, #2, #4, ...

   *** GEOMETRY OPTIMIZATION CONVERGED AFTER 9 ITERATIONS ***

------------------------------------------------------------------------
 total energy gain   :        -0.0015486 Eh       -0.9718 kcal/mol
 total RMSD          :         0.1055138 a0        0.0558 Å
 total power (kW/mol):        -0.4517675 (step)  -34.6268 (real)
------------------------------------------------------------------------

 ANCopt (total)                0 d,  0 h,  0 min,  0.117 sec
 optimizer setup                ...        0 min,  0.000 sec (  0.157%)
 model hessian                  ...        0 min,  0.003 sec (  2.673%)
 ANC generation                 ...        0 min,  0.001 sec (  0.427%)
 coordinate transformation      ...        0 min,  0.000 sec (  0.063%)
 single point calculation       ...        0 min,  0.111 sec ( 94.378%)
 optimization log               ...        0 min,  0.002 sec (  1.479%)
 hessian update                 ...        0 min,  0.000 sec (  0.056%)
 rational function              ...        0 min,  0.000 sec (  0.362%)

================
 final structure:
================
23
 xtb: 6.4.1 (afa7bdf)
C        -2.68456561751816   -1.47864986102580   -0.42610173147627
C        -3.44548860899649   -0.36056556776153   -0.12559283556855
C        -2.82589157984415    0.82251169927736    0.22551013510736
C        -1.43801439766809    0.90732440409124    0.26977641208100
C        -0.65956870657610   -0.21261230388968   -0.04786621935974
C        -1.30591041972875   -1.39889195110403   -0.38235313614819
H        -0.70586505804941   -2.26237026857584   -0.62945816439629
O        -0.90030372082456    2.09885539687779    0.65394836519273
H         0.06176958700880    2.02146214901330    0.74912731211038
H        -4.52289614677108   -0.40943496958572   -0.15989402186724
H        -3.39692000783895    1.70297559039238    0.47550029319581
H        -3.16393391019371   -2.40666967584611   -0.69642058495615
C         0.81517874907297   -0.16028670289440   -0.03790812149865
C         1.54639469911822   -1.11892181750892    0.65978998162302
C         1.50071227308339    0.82707066927712   -0.74420988026211
C         2.92846782311494   -1.08399134208433    0.65970505697257
H         1.02188649663331   -1.88562265086443    1.21070874735146
C         2.88441470460743    0.85636045589524   -0.74551502427023
H         0.94727377154279    1.55448461416652   -1.32154336402680
C         3.60136089397205   -0.09534693894541   -0.04039272587406
H         3.48377828474722   -1.83040221457742    1.20782582338870
H         3.40290995765757    1.62332448585006   -1.30104824974501
H         4.68044093345093   -0.06986220017724   -0.03925006757389
 
 Bond Distances (Angstroems)
 ---------------------------
C1-C2=1.3854         C1-C6=1.3817         C1-H12=1.0789        C2-C1=1.3854         C2-C3=1.3809         C2-H10=1.0791        
C3-C2=1.3809         C3-C4=1.3912         C3-H11=1.0788        C4-C3=1.3912         C4-C5=1.4004         C4-O8=1.3625         
C5-C4=1.4004         C5-C6=1.3917         C5-C13=1.4757        C6-C1=1.3817         C6-C5=1.3917         C6-H7=1.0801         
H7-C6=1.0801         O8-C4=1.3625         O8-H9=0.9699         H9-O8=0.9699         H10-C2=1.0791        H11-C3=1.0788        
H12-C1=1.0789        C13-C5=1.4757        C13-C14=1.3930       C13-C15=1.3942       C14-C13=1.3930       C14-C16=1.3825       
C14-H17=1.0800       C15-C13=1.3942       C15-C18=1.3840       C15-H19=1.0811       C16-C14=1.3825       C16-C20=1.3858       
C16-H21=1.0798       H17-C14=1.0800       C18-C15=1.3840       C18-C20=1.3845       C18-H22=1.0797       H19-C15=1.0811       
C20-C16=1.3858       C20-C18=1.3845       C20-H23=1.0794       H21-C16=1.0798       H22-C18=1.0797       H23-C20=1.0794       
 C  H  Rav=1.0797 sigma=0.0007  Rmin=1.0788  Rmax=1.0811     9
 C  C  Rav=1.3947 sigma=0.0240  Rmin=1.3809  Rmax=1.4757    13
 O  H  Rav=0.9699 sigma=0.0000  Rmin=0.9699  Rmax=0.9699     1
 O  C  Rav=1.3625 sigma=0.0000  Rmin=1.3625  Rmax=1.3625     1
 
 selected bond angles (degree)
 --------------------
C6-C1-C2=119.64                H12-C1-C2=120.30               H12-C1-C6=120.06               C3-C2-C1=120.01                
H10-C2-C1=120.33               H10-C2-C3=119.66               C4-C3-C2=120.53                H11-C3-C2=121.38               
H11-C3-C4=118.10               C5-C4-C3=119.91                O8-C4-C3=117.13                O8-C4-C5=122.95                
C6-C5-C4=118.56                C13-C5-C4=121.71               C13-C5-C6=119.73               C5-C6-C1=121.35                
H7-C6-C1=120.06                H7-C6-C5=118.58                H9-O8-C4=110.45                
 
 selected dihedral angles (degree)
 ---------------------------------
C3-C2-C1-C6=359.50            C3-C2-C1-H12=179.71           H10-C2-C1-C6=179.77           H10-C2-C1-H12=  0.00          
C4-C3-C2-C1=  0.56            C4-C3-C2-H10=180.28           H11-C3-C2-C1=180.76           H11-C3-C2-H10=  0.49          
C5-C4-C3-C2=  0.21            C5-C4-C3-H11=180.02           O8-C4-C3-C2=181.44            O8-C4-C3-H11=  1.25           
C6-C5-C4-C3=358.99            C6-C5-C4-O8=177.68            C13-C5-C4-C3=178.86           C13-C5-C4-O8=357.56           
C5-C6-C1-C2=359.68            C5-C6-C1-H12=179.46           H7-C6-C1-C2=180.90            H7-C6-C1-H12=  0.69           
C1-C6-C5-C4=  1.08            C1-C6-C5-C13=181.20           H7-C6-C5-C4=179.87            H7-C6-C5-C13=  0.00           
H9-O8-C4-C3=173.52            H9-O8-C4-C5=354.79            
           -------------------------------------------------
          |                Final Singlepoint                |
           -------------------------------------------------

          ...................................................
          :                      SETUP                      :
          :.................................................:
          :  # basis functions                  62          :
          :  # atomic orbitals                  62          :
          :  # shells                           36          :
          :  # electrons                        64          :
          :  max. iterations                   250          :
          :  Hamiltonian                  GFN2-xTB          :
          :  restarted?                      false          :
          :  GBSA solvation                   true          :
          :  PC potential                    false          :
          :  electronic temp.          300.0000000     K    :
          :  accuracy                    1.0000000          :
          :  -> integral cutoff          0.2500000E+02      :
          :  -> integral neglect         0.1000000E-07      :
          :  -> SCF convergence          0.1000000E-05 Eh   :
          :  -> wf. convergence          0.1000000E-03 e    :
          :  Broyden damping             0.4000000          :
          ...................................................

 iter      E             dE          RMSdq      gap      omega  full diag
   1    -35.4637355 -0.354637E+02  0.356E-05    3.71       0.0  T
   2    -35.4637355 -0.455458E-11  0.226E-05    3.71     923.4  T
   3    -35.4637355 -0.131450E-11  0.152E-05    3.71    1368.8  T

   *** convergence criteria satisfied after 3 iterations ***

         #    Occupation            Energy/Eh            Energy/eV
      -------------------------------------------------------------
         1        2.0000           -0.7077450             -19.2587
       ...           ...                  ...                  ...
        26        2.0000           -0.4312142             -11.7339
        27        2.0000           -0.4255893             -11.5809
        28        2.0000           -0.4147023             -11.2846
        29        2.0000           -0.4110845             -11.1862
        30        2.0000           -0.4068572             -11.0711
        31        2.0000           -0.3938351             -10.7168
        32        2.0000           -0.3775760             -10.2744 (HOMO)
        33                         -0.2412906              -6.5659 (LUMO)
        34                         -0.2256047              -6.1390
        35                         -0.2150138              -5.8508
        36                         -0.2024658              -5.5094
        37                         -0.1013594              -2.7581
       ...                                ...                  ...
        62                          0.6872166              18.7001
      -------------------------------------------------------------
                  HL-Gap            0.1362854 Eh            3.7085 eV
             Fermi-level           -0.3094333 Eh           -8.4201 eV

 SCC (total)                   0 d,  0 h,  0 min,  0.011 sec
 SCC setup                      ...        0 min,  0.000 sec (  4.133%)
 Dispersion                     ...        0 min,  0.000 sec (  0.575%)
 classical contributions        ...        0 min,  0.000 sec (  0.200%)
 integral evaluation            ...        0 min,  0.002 sec ( 21.909%)
 iterations                     ...        0 min,  0.003 sec ( 23.440%)
 molecular gradient             ...        0 min,  0.005 sec ( 48.121%)
 printout                       ...        0 min,  0.000 sec (  1.443%)

         :::::::::::::::::::::::::::::::::::::::::::::::::::::
         ::                     SUMMARY                     ::
         :::::::::::::::::::::::::::::::::::::::::::::::::::::
         :: total energy             -34.846219941725 Eh    ::
         :: total w/o Gsasa/hb       -34.842703839787 Eh    ::
         :: gradient norm              0.000397292299 Eh/a0 ::
         :: HOMO-LUMO gap              3.708515296864 eV    ::
         ::.................................................::
         :: SCC energy               -35.463735463782 Eh    ::
         :: -> isotropic ES            0.027170308721 Eh    ::
         :: -> anisotropic ES          0.003752558498 Eh    ::
         :: -> anisotropic XC          0.018274889060 Eh    ::
         :: -> dispersion             -0.022583611993 Eh    ::
         :: -> Gsolv                  -0.006633863620 Eh    ::
         ::    -> Gelec               -0.003117761681 Eh    ::
         ::    -> Gsasa               -0.000865031548 Eh    ::
         ::    -> Ghb                 -0.003731830089 Eh    ::
         ::    -> Gshift               0.001080759698 Eh    ::
         :: repulsion energy           0.617474357490 Eh    ::
         :: add. restraining           0.000000000000 Eh    ::
         :: total charge              -0.000000000000 e     ::
         :::::::::::::::::::::::::::::::::::::::::::::::::::::

           ------------------------------------------------- 
          |                Numerical Hessian                |
           ------------------------------------------------- 
step length          :   0.00500
SCC accuracy         :   0.30000
Hessian scale factor :   1.00000
frozen atoms in %    :   0.00000    0
RMS gradient         :   0.00040
estimated CPU  time      0.03 min
estimated wall time      0.03 min

writing file <hessian>.

 projected vibrational frequencies (cm⁻¹)
eigval :       -0.00    -0.00    -0.00    -0.00     0.00     0.00
eigval :       64.63    80.04    97.71   199.55   252.30   281.98
eigval :      317.30   370.83   410.19   432.41   466.77   494.74
eigval :      529.77   541.28   585.37   590.48   670.29   691.62
eigval :      726.38   758.80   787.63   820.95   877.51   883.01
eigval :      905.69   914.36   923.72   932.22   935.23   960.66
eigval :     1031.68  1081.89  1087.30  1105.90  1119.97  1144.93
eigval :     1174.97  1180.26  1197.41  1231.44  1258.43  1281.14
eigval :     1292.45  1314.21  1326.01  1420.24  1440.63  1459.25
eigval :     1491.85  1573.94  1581.10  1595.86  1601.06  3067.92
eigval :     3073.84  3077.07  3079.81  3083.65  3085.21  3094.10
eigval :     3096.04  3104.19  3431.20
           -------------------------------------------------
          |                Property Printout                |
           -------------------------------------------------

    * Orbital Energies and Occupations

         #    Occupation            Energy/Eh            Energy/eV
      -------------------------------------------------------------
         1        2.0000           -0.7077451             -19.2587
       ...           ...                  ...                  ...
        20        2.0000           -0.4817507             -13.1091
        21        2.0000           -0.4781826             -13.0120
        22        2.0000           -0.4750709             -12.9273
        23        2.0000           -0.4724790             -12.8568
        24        2.0000           -0.4579739             -12.4621
        25        2.0000           -0.4423387             -12.0366
        26        2.0000           -0.4312142             -11.7339
        27        2.0000           -0.4255894             -11.5809
        28        2.0000           -0.4147023             -11.2846
        29        2.0000           -0.4110845             -11.1862
        30        2.0000           -0.4068572             -11.0711
        31        2.0000           -0.3938351             -10.7168
        32        2.0000           -0.3775761             -10.2744 (HOMO)
        33                         -0.2412906              -6.5659 (LUMO)
        34                         -0.2256047              -6.1390
        35                         -0.2150139              -5.8508
        36                         -0.2024659              -5.5094
        37                         -0.1013594              -2.7581
        38                         -0.0783269              -2.1314
        39                          0.0738858               2.0105
        40                          0.0947192               2.5774
        41                          0.1232749               3.3545
        42                          0.1469749               3.9994
        43                          0.1514212               4.1204
       ...                                ...                  ...
        62                          0.6872166              18.7001
      -------------------------------------------------------------
                  HL-Gap            0.1362854 Eh            3.7085 eV
             Fermi-level           -0.3094333 Eh           -8.4201 eV

     #   Z          covCN         q      C6AA      α(0)
     1   6 C        2.917    -0.048    29.204     8.862
     2   6 C        2.920    -0.038    28.943     8.822
     3   6 C        2.919    -0.063    29.557     8.915
     4   6 C        2.849     0.141    24.930     8.183
     5   6 C        2.974    -0.030    28.735     8.793
     6   6 C        2.927    -0.040    28.995     8.831
     7   1 H        0.926     0.040     2.454     2.450
     8   8 O        1.659    -0.446    21.764     6.298
     9   1 H        0.804     0.349     0.589     1.206
    10   1 H        0.926     0.042     2.425     2.435
    11   1 H        0.926     0.047     2.354     2.399
    12   1 H        0.926     0.039     2.464     2.455
    13   6 C        2.976     0.008    27.829     8.653
    14   6 C        2.924    -0.038    28.951     8.824
    15   6 C        2.924    -0.045    29.116     8.849
    16   6 C        2.918    -0.034    28.843     8.807
    17   1 H        0.926     0.037     2.495     2.470
    18   6 C        2.918    -0.035    28.880     8.813
    19   1 H        0.926     0.039     2.462     2.454
    20   6 C        2.920    -0.036    28.901     8.816
    21   1 H        0.926     0.037     2.485     2.465
    22   1 H        0.926     0.038     2.476     2.461
    23   1 H        0.926     0.037     2.493     2.469

 Mol. C6AA /au·bohr⁶  :       6986.936709
 Mol. C8AA /au·bohr⁸  :     174061.263346
 Mol. α(0) /au        :        134.728734


Wiberg/Mayer (AO) data.
largest (>0.10) Wiberg bond orders for each atom

 ---------------------------------------------------------------------------
     #   Z sym  total        # sym  WBO       # sym  WBO       # sym  WBO
 ---------------------------------------------------------------------------
     1   6 C    3.991 --     6 C    1.448     2 C    1.424    12 H    0.970
     2   6 C    3.988 --     3 C    1.454     1 C    1.424    10 H    0.970
                             5 C    0.101
     3   6 C    3.988 --     2 C    1.454     4 C    1.372    11 H    0.968
                             6 C    0.105
     4   6 C    3.937 --     3 C    1.372     5 C    1.331     8 O    1.072
     5   6 C    3.986 --     6 C    1.398     4 C    1.331    13 C    1.036
                             2 C    0.101
     6   6 C    3.991 --     1 C    1.448     5 C    1.398     7 H    0.969
                             3 C    0.105
     7   1 H    0.998 --     6 C    0.969
     8   8 O    2.086 --     4 C    1.072     9 H    0.846
     9   1 H    0.878 --     8 O    0.846
    10   1 H    0.998 --     2 C    0.970
    11   1 H    0.997 --     3 C    0.968
    12   1 H    0.998 --     1 C    0.970
    13   6 C    3.989 --    15 C    1.391    14 C    1.390     5 C    1.036
                            20 C    0.106
    14   6 C    3.991 --    16 C    1.453    13 C    1.390    17 H    0.969
                            18 C    0.110
    15   6 C    3.991 --    18 C    1.444    13 C    1.391    19 H    0.968
                            16 C    0.108
    16   6 C    3.992 --    14 C    1.453    20 C    1.433    21 H    0.970
                            15 C    0.108
    17   1 H    0.999 --    14 C    0.969
    18   6 C    3.991 --    15 C    1.444    20 C    1.439    22 H    0.970
                            14 C    0.110
    19   1 H    0.998 --    15 C    0.968
    20   6 C    3.988 --    18 C    1.439    16 C    1.433    23 H    0.971
                            13 C    0.106
    21   1 H    0.998 --    16 C    0.970
    22   1 H    0.998 --    18 C    0.970
    23   1 H    0.998 --    20 C    0.971
 ---------------------------------------------------------------------------

Topologies differ in total number of bonds
Writing topology from bond orders to xtbtopo.mol

molecular dipole:
                 x           y           z       tot (Debye)
 q only:        0.537      -0.244       0.000
   full:        0.710      -0.320      -0.016       1.981
molecular quadrupole (traceless):
                xx          xy          yy          xz          yz          zz
 q only:        2.400       3.662      -1.161       1.251      -0.939      -1.238
  q+dip:        5.817       3.810      -0.741       1.409      -2.864      -5.077
   full:        3.459       4.093      -1.515       1.447      -1.811      -1.944

           -------------------------------------------------
          |                Geometry Summary                 |
           -------------------------------------------------

      molecular mass/u    :      170.2076432
   center of mass at/Å    :       -0.0092040       0.0095411       0.0066069
  moments of inertia/u·Å² :        0.2615989E+03   0.9460226E+03   0.1119231E+04
rotational constants/cm⁻¹ :        0.6444077E-01   0.1781948E-01   0.1506180E-01

 * 23 selected distances

     #   Z          #   Z                                           value/Å
     1   6 C        2   6 C                                       1.3854320
     2   6 C        3   6 C                                       1.3808858
     3   6 C        4   6 C                                       1.3911706
     4   6 C        5   6 C                                       1.4004045 (max)
     1   6 C        6   6 C                                       1.3816531
     5   6 C        6   6 C                                       1.3917250
     6   6 C        7   1 H                                       1.0801436
     4   6 C        8   8 O                                       1.3625223
     8   8 O        9   1 H                                       0.9698628 (min)
     2   6 C       10   1 H                                       1.0790606
     3   6 C       11   1 H                                       1.0787888
     1   6 C       12   1 H                                       1.0789286
    13   6 C       14   6 C                                       1.3929970
    13   6 C       15   6 C                                       1.3941639
    14   6 C       16   6 C                                       1.3825145
    14   6 C       17   1 H                                       1.0800234
    15   6 C       18   6 C                                       1.3840130
    15   6 C       19   1 H                                       1.0810824
    16   6 C       20   6 C                                       1.3857632
    18   6 C       20   6 C                                       1.3845419
    16   6 C       21   1 H                                       1.0797848
    18   6 C       22   1 H                                       1.0796705
    20   6 C       23   1 H                                       1.0793815

 * 4 distinct bonds (by element types)

   Z      Z             #   av. dist./Å        max./Å        min./Å
   1 H    6 C           9     1.0796516     1.0810824     1.0787888
   6 C    6 C          12     1.3879387     1.4004045     1.3808858
   1 H    8 O           1     0.9698628     0.9698628     0.9698628
   6 C    8 O           1     1.3625223     1.3625223     1.3625223

           -------------------------------------------------
          |               Frequency Printout                |
           -------------------------------------------------
 projected vibrational frequencies (cm⁻¹)
eigval :       -0.00    -0.00    -0.00    -0.00     0.00     0.00
eigval :       64.63    80.04    97.71   199.55   252.30   281.98
eigval :      317.30   370.83   410.19   432.41   466.77   494.74
eigval :      529.77   541.28   585.37   590.48   670.29   691.62
eigval :      726.38   758.80   787.63   820.95   877.51   883.01
eigval :      905.69   914.36   923.72   932.22   935.23   960.66
eigval :     1031.68  1081.89  1087.30  1105.90  1119.97  1144.93
eigval :     1174.97  1180.26  1197.41  1231.44  1258.43  1281.14
eigval :     1292.45  1314.21  1326.01  1420.24  1440.63  1459.25
eigval :     1491.85  1573.94  1581.10  1595.86  1601.06  3067.92
eigval :     3073.84  3077.07  3079.81  3083.65  3085.21  3094.10
eigval :     3096.04  3104.19  3431.20
 reduced masses (amu)
   1: 10.95   2: 11.75   3: 11.90   4: 11.07   5: 11.83   6: 11.32   7: 10.82   8: 10.46
   9: 10.76  10: 11.61  11: 11.29  12: 11.13  13: 10.33  14:  8.62  15:  9.85  16:  3.32
  17:  9.96  18: 11.35  19: 10.64  20: 10.46  21: 11.29  22: 11.22  23: 10.27  24: 10.52
  25: 11.09  26:  4.51  27:  3.69  28: 11.94  29:  3.46  30:  3.30  31:  3.73  32:  3.93
  33:  3.04  34:  3.38  35:  3.44  36: 11.32  37: 10.31  38:  7.05  39:  5.50  40:  4.59
  41:  4.16  42:  4.59  43:  1.56  44:  1.32  45:  1.76  46:  8.66  47:  4.40  48:  3.46
  49:  8.82  50: 11.85  51: 11.52  52:  8.88  53:  9.25  54:  9.00  55: 10.06  56: 11.50
  57: 11.55  58: 11.48  59: 11.51  60:  1.79  61:  1.75  62:  1.77  63:  1.82  64:  1.80
  65:  1.87  66:  1.86  67:  1.92  68:  1.90  69:  1.86
 IR intensities (km·mol⁻¹)
   1:  0.12   2:  0.05   3:  0.14   4:  0.02   5:  0.02   6:  0.15   7:  0.60   8:  0.12
   9:  0.29  10:  0.40  11:  2.33  12:  0.45  13:  0.48  14:  7.84  15: 21.87  16:145.62
  17:  3.54  18:  3.74  19:  1.50  20:  0.94  21:  1.54  22:  1.48  23:  1.64  24:  3.04
  25:  6.93  26: 36.22  27: 21.69  28: 35.84  29:  0.77  30:  0.88  31:  0.18  32:  1.45
  33:  0.21  34:  0.26  35:  0.88  36:  3.30  37:  0.44  38:  9.36  39: 12.07  40:151.72
  41: 16.19  42:169.10  43:  0.01  44:  0.40  45:  0.09  46:205.22  47: 15.46  48:  1.74
  49:  2.82  50:  0.46  51: 43.67  52: 15.37  53: 17.68  54: 68.85  55: 47.86  56: 42.99
  57: 19.05  58: 25.63  59: 11.69  60: 25.89  61: 10.93  62: 25.12  63: 53.01  64: 37.88
  65:194.94  66:146.46  67:111.56  68: 87.44  69:183.28
 Raman intensities (amu)
   1:  0.00   2:  0.00   3:  0.00   4:  0.00   5:  0.00   6:  0.00   7:  0.00   8:  0.00
   9:  0.00  10:  0.00  11:  0.00  12:  0.00  13:  0.00  14:  0.00  15:  0.00  16:  0.00
  17:  0.00  18:  0.00  19:  0.00  20:  0.00  21:  0.00  22:  0.00  23:  0.00  24:  0.00
  25:  0.00  26:  0.00  27:  0.00  28:  0.00  29:  0.00  30:  0.00  31:  0.00  32:  0.00
  33:  0.00  34:  0.00  35:  0.00  36:  0.00  37:  0.00  38:  0.00  39:  0.00  40:  0.00
  41:  0.00  42:  0.00  43:  0.00  44:  0.00  45:  0.00  46:  0.00  47:  0.00  48:  0.00
  49:  0.00  50:  0.00  51:  0.00  52:  0.00  53:  0.00  54:  0.00  55:  0.00  56:  0.00
  57:  0.00  58:  0.00  59:  0.00  60:  0.00  61:  0.00  62:  0.00  63:  0.00  64:  0.00
  65:  0.00  66:  0.00  67:  0.00  68:  0.00  69:  0.00
 output can be read by thermo (or use thermo option).
 writing <g98.out> molden fake output.
 recommended (thermochemical) frequency scaling factor: 1.0
           -------------------------------------------------
          |             Thermodynamic Functions             |
           -------------------------------------------------

Molecule has no symmetry elements
It seems to be the C1 point group
c1  symmetry found (for desy threshold:  0.10E+00) used in thermo

          ...................................................
          :                      SETUP                      :
          :.................................................:
          :  # frequencies                          63      :
          :  # imaginary freq.                       0      :
          :  linear?                             false      :
          :  only rotor calc.                    false      :
          :  symmetry                               c1      :
          :  rotational number                       1      :
          :  scaling factor                  1.0000000      :
          :  rotor cutoff                   50.0000000 cm⁻¹ :
          :  imag. cutoff                  -20.0000000 cm⁻¹ :
          :.................................................:

    mode    ω/cm⁻¹     T·S(HO)/kcal·mol⁻¹    T·S(FR)/kcal·mol⁻¹   T·S(vib)
   ------------------------------------------------------------------------
       1     64.63    -1.28522 ( 73.62%)    -0.98043 ( 26.38%)    -1.20483
       2     80.04    -1.15975 ( 86.79%)    -0.91708 ( 13.21%)    -1.12768
       3     97.71    -1.04337 ( 93.58%)    -0.85801 (  6.42%)    -1.03147
       4    199.55    -0.63722 ( 99.61%)    -0.64651 (  0.39%)    -0.63726
       5    252.30    -0.51116 ( 99.85%)    -0.57703 (  0.15%)    -0.51127
       6    281.98    -0.45367 ( 99.90%)    -0.54408 (  0.10%)    -0.45376
   ------------------------------------------------------------------------

   temp. (K)  partition function   enthalpy   heat capacity  entropy
                                   cal/mol     cal/K/mol   cal/K/mol   J/K/mol
 298.15  VIB   439.                 4797.880     36.483     27.770
         ROT  0.127E+07              888.752      2.981     30.913
         INT  0.559E+09             5686.632     39.464     58.683
         TR   0.215E+28             1481.254      4.968     41.285
         TOT                        7167.8864    44.4320    99.9675   418.2641

       T/K    H(0)-H(T)+PV         H(T)/Eh          T*S/Eh         G(T)/Eh
   ------------------------------------------------------------------------
    298.15    0.114228E-01    0.190688E+00    0.474978E-01    0.143190E+00
   ------------------------------------------------------------------------

         :::::::::::::::::::::::::::::::::::::::::::::::::::::
         ::                  THERMODYNAMIC                  ::
         :::::::::::::::::::::::::::::::::::::::::::::::::::::
         :: total free energy         -34.703029698743 Eh   ::
         ::.................................................::
         :: total energy              -34.846219944827 Eh   ::
         :: zero point energy           0.179265285429 Eh   ::
         :: G(RRHO) w/o ZPVE           -0.036075039345 Eh   ::
         :: G(RRHO) contrib.            0.143190246084 Eh   ::
         :::::::::::::::::::::::::::::::::::::::::::::::::::::

optimized geometry written to: xtbopt.xyz


           -------------------------------------------------
          | TOTAL ENERGY              -34.846219944827 Eh   |
          | TOTAL ENTHALPY            -34.655531905338 Eh   |
          | TOTAL FREE ENERGY         -34.703029698743 Eh   |
          | GRADIENT NORM               0.000397247518 Eh/α |
          | HOMO-LUMO GAP               3.708515778194 eV   |
           -------------------------------------------------

------------------------------------------------------------------------
 * finished run on 2021/11/15 at 09:36:17.454     
------------------------------------------------------------------------
 total:
 * wall-time:     0 d,  0 h,  0 min,  2.009 sec
 *  cpu-time:     0 d,  0 h,  0 min,  1.984 sec
 * ratio c/w:     0.988 speedup
 SCF:
 * wall-time:     0 d,  0 h,  0 min,  0.018 sec
 *  cpu-time:     0 d,  0 h,  0 min,  0.016 sec
 * ratio c/w:     0.879 speedup
 ANC optimizer:
 * wall-time:     0 d,  0 h,  0 min,  0.130 sec
 *  cpu-time:     0 d,  0 h,  0 min,  0.141 sec
 * ratio c/w:     1.080 speedup
 analytical hessian:
 * wall-time:     0 d,  0 h,  0 min,  1.819 sec
 *  cpu-time:     0 d,  0 h,  0 min,  1.812 sec
 * ratio c/w:     0.997 speedup

