 Entering Gaussian System
 *********************************************
 Gaussian 98:
 frequency output generated by the xtb code
 *********************************************
                         Standard orientation:
 --------------------------------------------------------------------
  Center     Atomic     Atomic              Coordinates (Angstroms)
  Number     Number      Type              X           Y           Z
 --------------------------------------------------------------------
    1          6             0       -2.684575   -1.478637   -0.426090
    2          6             0       -3.445491   -0.360548   -0.125580
    3          6             0       -2.825886    0.822527    0.225519
    4          6             0       -1.438009    0.907332    0.269780
    5          6             0       -0.659570   -0.212609   -0.047864
    6          6             0       -1.305919   -1.398886   -0.382346
    7          1             0       -0.705879   -2.262368   -0.629452
    8          8             0       -0.900290    2.098861    0.653948
    9          1             0        0.061783    2.021463    0.749124
   10          1             0       -4.522899   -0.409412   -0.159878
   11          1             0       -3.396909    1.702994    0.475509
   12          1             0       -3.163949   -2.406654   -0.696405
   13          6             0        0.815178   -0.160291   -0.037911
   14          6             0        1.546391   -1.118929    0.659787
   15          6             0        1.500714    0.827062   -0.744217
   16          6             0        2.928464   -1.084006    0.659697
   17          1             0        1.021881   -1.885626    1.210708
   18          6             0        2.884417    0.856344   -0.745527
   19          1             0        0.947277    1.554477   -1.321549
   20          6             0        3.601360   -0.095366   -0.040405
   21          1             0        3.483773   -1.830418    1.207817
   22          1             0        3.402914    1.623304   -1.301063
   23          1             0        4.680440   -0.069887   -0.039266
 --------------------------------------------------------------------
     1 basis functions        1 primitive gaussians
     1 alpha electrons        1 beta electrons
 
 Harmonic frequencies (cm**-1), IR intensities (km*mol⁻¹),
 Raman scattering activities (A**4/amu), Raman depolarization ratios,
 reduced masses (AMU), force constants (mDyne/A) and normal coordinates:
                      1                      2                      3
                        a                      a                      a 
 Frequencies --    64.6272                80.0425                97.7104
 Red. masses --    10.8245                10.4613                10.7619
 Frc consts  --     0.0000                 0.0000                 0.0000
 IR Inten    --     0.5953                 0.1242                 0.2933
 Raman Activ --     0.0000                 0.0000                 0.0000
 Depolar     --     0.0000                 0.0000                 0.0000
 Atom AN      X      Y      Z        X      Y      Z        X      Y      Z
   1   6    -0.03   0.08  -0.24    -0.10   0.00   0.07    -0.19   0.06   0.07
   2   6     0.00   0.06  -0.08    -0.03  -0.03   0.37    -0.04   0.22  -0.15
   3   6     0.03  -0.01   0.12     0.05  -0.05   0.28     0.12   0.15  -0.17
   4   6     0.03  -0.06   0.14     0.06  -0.04  -0.08     0.12  -0.09  -0.03
   5   6    -0.01  -0.04  -0.02    -0.01  -0.03  -0.29    -0.02  -0.22   0.06
   6   6    -0.03   0.03  -0.20    -0.08   0.00  -0.25    -0.17  -0.16   0.16
   7   1    -0.01   0.01  -0.08    -0.04   0.01  -0.13    -0.09  -0.08   0.08
   8   8     0.11  -0.17   0.34     0.17  -0.05  -0.21     0.32  -0.19  -0.00
   9   1     0.03  -0.05   0.04     0.05  -0.01  -0.11     0.07  -0.10   0.04
  10   1    -0.00   0.03  -0.03    -0.01  -0.01   0.20    -0.01   0.11  -0.08
  11   1     0.01  -0.01   0.07     0.03  -0.02   0.14     0.07   0.08  -0.09
  12   1    -0.02   0.04  -0.11    -0.05   0.01   0.03    -0.09   0.03   0.04
  13   6    -0.01  -0.03  -0.01    -0.01  -0.05  -0.28    -0.02  -0.22  -0.00
  14   6     0.01   0.19   0.27    -0.10  -0.03  -0.16     0.13  -0.15  -0.08
  15   6    -0.05  -0.21  -0.29     0.08  -0.02  -0.15    -0.18  -0.08   0.03
  16   6     0.01   0.26   0.28    -0.10   0.07   0.15     0.13   0.12  -0.04
  17   1     0.01   0.10   0.14    -0.05  -0.02  -0.08     0.08  -0.08  -0.04
  18   6    -0.05  -0.17  -0.31     0.08   0.08   0.16    -0.19   0.20   0.08
  19   1    -0.03  -0.11  -0.13     0.04  -0.02  -0.08    -0.09  -0.05   0.01
  20   6    -0.02   0.06  -0.02    -0.02   0.14   0.34    -0.03   0.31   0.07
  21   1     0.01   0.13   0.15    -0.05   0.03   0.08     0.08   0.05  -0.02
  22   1    -0.02  -0.09  -0.16     0.04   0.03   0.08    -0.09   0.10   0.04
  23   1    -0.01   0.03  -0.01    -0.01   0.07   0.18    -0.01   0.16   0.04
                      4                      5                      6
                        a                      a                      a 
 Frequencies --   199.5475               252.2998               281.9820
 Red. masses --    11.6053                11.2883                11.1277
 Frc consts  --     0.0000                 0.0000                 0.0000
 IR Inten    --     0.3993                 2.3294                 0.4466
 Raman Activ --     0.0000                 0.0000                 0.0000
 Depolar     --     0.0000                 0.0000                 0.0000
 Atom AN      X      Y      Z        X      Y      Z        X      Y      Z
   1   6    -0.03   0.12  -0.36    -0.03   0.09  -0.08     0.28  -0.07  -0.10
   2   6    -0.01   0.01   0.09    -0.09   0.05  -0.10     0.28  -0.06  -0.14
   3   6     0.02  -0.07   0.32    -0.08  -0.03   0.11     0.12  -0.04   0.13
   4   6     0.02  -0.03   0.06    -0.07   0.03   0.14     0.10   0.11   0.15
   5   6    -0.00  -0.08   0.16     0.02   0.06   0.17     0.01   0.07   0.16
   6   6    -0.03   0.03  -0.17    -0.04   0.08   0.16     0.24  -0.03   0.17
   7   1    -0.01   0.02  -0.09    -0.01   0.02   0.05     0.11   0.02   0.07
   8   8     0.04   0.15  -0.51    -0.42   0.24   0.03     0.24   0.15  -0.05
   9   1     0.01   0.05  -0.11    -0.09   0.16  -0.05     0.06   0.02  -0.03
  10   1    -0.00   0.00   0.05    -0.02   0.02  -0.08     0.08  -0.02  -0.10
  11   1     0.01  -0.03   0.14    -0.02  -0.01   0.04    -0.01  -0.04   0.04
  12   1    -0.01   0.07  -0.22     0.01   0.03  -0.07     0.09  -0.01  -0.08
  13   6    -0.00  -0.10   0.26     0.07  -0.15  -0.07    -0.09   0.03  -0.04
  14   6     0.12  -0.06   0.19     0.16  -0.23  -0.24    -0.24  -0.11  -0.12
  15   6    -0.12  -0.05   0.22     0.09  -0.27  -0.23    -0.20  -0.03  -0.18
  16   6     0.13  -0.00  -0.03     0.17  -0.02  -0.03    -0.26  -0.09  -0.03
  17   1     0.07  -0.03   0.07     0.07  -0.10  -0.10    -0.10  -0.03  -0.06
  18   6    -0.13   0.03   0.03     0.10  -0.09  -0.06    -0.21   0.00  -0.04
  19   1    -0.07  -0.03   0.07     0.02  -0.10  -0.09    -0.07  -0.03  -0.07
  20   6    -0.00   0.01  -0.13     0.15   0.17   0.24    -0.31   0.07   0.14
  21   1     0.07   0.00  -0.04     0.05   0.00   0.00    -0.07  -0.03  -0.02
  22   1    -0.07   0.02  -0.01     0.01  -0.02  -0.02    -0.04  -0.01  -0.00
  23   1    -0.00   0.01  -0.09     0.04   0.13   0.16    -0.09   0.05   0.10
                      7                      8                      9
                        a                      a                      a 
 Frequencies --   317.2966               370.8294               410.1883
 Red. masses --    10.3306                 8.6197                 9.8475
 Frc consts  --     0.0000                 0.0000                 0.0000
 IR Inten    --     0.4848                 7.8355                21.8746
 Raman Activ --     0.0000                 0.0000                 0.0000
 Depolar     --     0.0000                 0.0000                 0.0000
 Atom AN      X      Y      Z        X      Y      Z        X      Y      Z
   1   6    -0.11   0.04  -0.12    -0.00   0.00  -0.01    -0.02  -0.01   0.01
   2   6    -0.12   0.08  -0.28    -0.00  -0.00  -0.01     0.13   0.12  -0.10
   3   6    -0.08  -0.11   0.32     0.00  -0.01   0.02     0.27  -0.05   0.13
   4   6    -0.07  -0.16   0.15    -0.00  -0.01   0.01     0.25  -0.01  -0.10
   5   6    -0.03  -0.09   0.05     0.00  -0.01   0.02     0.11  -0.08  -0.27
   6   6    -0.10  -0.16   0.38    -0.00  -0.01   0.02    -0.03  -0.13   0.10
   7   1    -0.05  -0.08   0.18    -0.00  -0.00  -0.00    -0.02  -0.07   0.10
   8   8     0.12  -0.17  -0.18     0.03   0.01  -0.08    -0.33   0.17   0.18
   9   1     0.03  -0.07  -0.09    -0.02  -0.06   0.20    -0.03   0.29  -0.26
  10   1    -0.03   0.06  -0.20    -0.00   0.00  -0.01     0.04   0.09  -0.04
  11   1    -0.01  -0.04   0.14     0.00  -0.00   0.01     0.11  -0.02   0.11
  12   1    -0.03   0.03  -0.10    -0.00   0.00  -0.01    -0.04   0.01   0.03
  13   6    -0.00   0.19  -0.17    -0.01   0.02  -0.01     0.04  -0.21  -0.22
  14   6    -0.05   0.23  -0.06    -0.00  -0.23  -0.35    -0.03  -0.05   0.07
  15   6     0.17   0.18  -0.06    -0.00   0.26   0.33    -0.07   0.07   0.11
  16   6    -0.05   0.03  -0.01    -0.02   0.24   0.33    -0.05   0.07   0.16
  17   1    -0.04   0.09  -0.01     0.00  -0.15  -0.21    -0.02   0.02   0.05
  18   6     0.20   0.04   0.05     0.01  -0.23  -0.32    -0.09   0.09   0.07
  19   1     0.10   0.08  -0.03     0.00   0.17   0.21    -0.04   0.04   0.07
  20   6     0.11  -0.09  -0.02    -0.00  -0.01  -0.00    -0.11  -0.12  -0.19
  21   1    -0.06  -0.01   0.01    -0.01   0.15   0.21     0.01   0.08   0.10
  22   1     0.09   0.01   0.04     0.01  -0.15  -0.20    -0.02   0.05   0.06
  23   1     0.03  -0.07  -0.01    -0.00  -0.01  -0.00    -0.03  -0.07  -0.11
                     10                     11                     12
                        a                      a                      a 
 Frequencies --   432.4133               466.7712               494.7431
 Red. masses --     3.3212                 9.9552                11.3503
 Frc consts  --     0.0000                 0.0000                 0.0000
 IR Inten    --   145.6212                 3.5385                 3.7369
 Raman Activ --     0.0000                 0.0000                 0.0000
 Depolar     --     0.0000                 0.0000                 0.0000
 Atom AN      X      Y      Z        X      Y      Z        X      Y      Z
   1   6     0.01  -0.01   0.01    -0.05  -0.04   0.19    -0.09  -0.28   0.08
   2   6    -0.03  -0.03   0.02     0.03   0.07   0.01    -0.01  -0.18  -0.19
   3   6    -0.09   0.04  -0.09     0.14   0.04  -0.17    -0.09  -0.11   0.01
   4   6    -0.08   0.01   0.02     0.11  -0.26   0.53    -0.07   0.24   0.25
   5   6    -0.04   0.02   0.08     0.06  -0.20   0.30    -0.19   0.17  -0.02
   6   6     0.01   0.03  -0.04    -0.02  -0.02  -0.28    -0.12   0.14  -0.07
   7   1     0.01   0.02  -0.03    -0.03   0.04  -0.28     0.03   0.09  -0.04
   8   8     0.12  -0.16   0.15    -0.15   0.06  -0.17     0.32   0.28   0.03
   9   1     0.14   0.15  -0.86    -0.03   0.11  -0.03     0.08  -0.02  -0.04
  10   1    -0.01  -0.02  -0.01     0.01   0.08  -0.10    -0.00  -0.02  -0.11
  11   1    -0.04   0.01  -0.06     0.08   0.09  -0.25    -0.12  -0.08  -0.05
  12   1     0.01  -0.01   0.00    -0.04   0.01   0.03     0.01  -0.10   0.04
  13   6    -0.04   0.09   0.15     0.04   0.05  -0.13    -0.12  -0.24  -0.21
  14   6     0.01  -0.05  -0.09    -0.04   0.09  -0.04     0.05  -0.02  -0.03
  15   6     0.01   0.07   0.13     0.01   0.12  -0.09     0.01  -0.14   0.07
  16   6     0.01   0.03  -0.00    -0.06  -0.01   0.05     0.07   0.15   0.08
  17   1     0.01  -0.06  -0.08    -0.05   0.05  -0.01     0.05   0.01   0.06
  18   6     0.01  -0.07  -0.09     0.02   0.03   0.03     0.02   0.04   0.16
  19   1     0.02  -0.01  -0.03     0.01   0.05  -0.02     0.02   0.01   0.06
  20   6     0.03   0.05   0.05    -0.05  -0.07  -0.01     0.16  -0.09  -0.18
  21   1    -0.00  -0.00  -0.01    -0.03   0.00   0.03     0.01   0.09   0.10
  22   1    -0.00  -0.06  -0.09     0.04   0.01   0.04    -0.03   0.08   0.11
  23   1     0.01   0.01   0.01    -0.01  -0.03  -0.01     0.05  -0.04  -0.07
                     13                     14                     15
                        a                      a                      a 
 Frequencies --   529.7651               541.2789               585.3709
 Red. masses --    10.6362                10.4564                11.2894
 Frc consts  --     0.0000                 0.0000                 0.0000
 IR Inten    --     1.4954                 0.9364                 1.5416
 Raman Activ --     0.0000                 0.0000                 0.0000
 Depolar     --     0.0000                 0.0000                 0.0000
 Atom AN      X      Y      Z        X      Y      Z        X      Y      Z
   1   6     0.16   0.09   0.42     0.25   0.28  -0.07     0.12  -0.04   0.03
   2   6    -0.02   0.18  -0.35    -0.03   0.03   0.18     0.30   0.13  -0.00
   3   6    -0.16   0.05   0.28    -0.25   0.20  -0.07    -0.07   0.26   0.11
   4   6    -0.14  -0.13   0.12    -0.21  -0.07  -0.03    -0.09   0.05  -0.02
   5   6     0.07   0.13  -0.31     0.06   0.04   0.17    -0.24  -0.11  -0.07
   6   6     0.17   0.11  -0.20     0.23   0.06   0.11     0.11  -0.30  -0.12
   7   1     0.03   0.02  -0.06     0.06   0.02   0.01     0.06  -0.07  -0.02
   8   8    -0.06  -0.17  -0.16    -0.04  -0.24  -0.05    -0.09   0.03   0.01
   9   1    -0.02  -0.07  -0.01    -0.01  -0.11  -0.07    -0.02   0.02   0.02
  10   1     0.00   0.02  -0.22    -0.00  -0.09   0.05     0.09  -0.00  -0.01
  11   1    -0.02   0.02   0.11    -0.05   0.08  -0.05    -0.05   0.05   0.04
  12   1     0.05  -0.01   0.23     0.09   0.09  -0.08    -0.07   0.03   0.04
  13   6     0.06  -0.05   0.12     0.05  -0.21  -0.27    -0.26   0.07  -0.05
  14   6     0.01  -0.13   0.11     0.03  -0.12  -0.09     0.15   0.28  -0.18
  15   6    -0.01  -0.07   0.07    -0.03  -0.05  -0.11    -0.20   0.00   0.01
  16   6     0.01  -0.03  -0.02     0.02   0.08   0.21     0.20  -0.03   0.00
  17   1     0.01  -0.06   0.01    -0.00   0.03   0.05     0.07   0.06  -0.05
  18   6    -0.04   0.02  -0.06    -0.04   0.13   0.17    -0.18  -0.29   0.19
  19   1    -0.04  -0.06   0.01    -0.02   0.04   0.04     0.02   0.04  -0.03
  20   6    -0.06   0.06   0.00    -0.05  -0.17  -0.22     0.25  -0.07   0.08
  21   1     0.04  -0.01  -0.04     0.01   0.11   0.17    -0.03  -0.06   0.02
  22   1    -0.02  -0.00  -0.04    -0.01   0.12   0.17    -0.07  -0.08   0.03
  23   1    -0.02   0.02  -0.01    -0.01  -0.04  -0.07     0.07   0.05  -0.03
                     16                     17                     18
                        a                      a                      a 
 Frequencies --   590.4821               670.2879               691.6190
 Red. masses --    11.2157                10.2680                10.5198
 Frc consts  --     0.0000                 0.0000                 0.0000
 IR Inten    --     1.4848                 1.6445                 3.0391
 Raman Activ --     0.0000                 0.0000                 0.0000
 Depolar     --     0.0000                 0.0000                 0.0000
 Atom AN      X      Y      Z        X      Y      Z        X      Y      Z
   1   6    -0.07   0.01   0.06     0.05   0.06  -0.10    -0.00   0.05  -0.21
   2   6    -0.21  -0.07  -0.09    -0.01  -0.04   0.11    -0.01  -0.06   0.20
   3   6     0.02  -0.19  -0.00    -0.07   0.06  -0.10    -0.01   0.07  -0.21
   4   6     0.04   0.01  -0.06    -0.05  -0.04   0.21    -0.02  -0.13   0.48
   5   6     0.15   0.09   0.00    -0.00   0.07  -0.17    -0.00   0.14  -0.54
   6   6    -0.06   0.24   0.01     0.03  -0.01   0.12    -0.00  -0.08   0.23
   7   1    -0.03   0.05   0.01     0.02   0.00   0.03    -0.00  -0.03   0.10
   8   8     0.09  -0.01   0.01     0.02   0.01  -0.02     0.02   0.05  -0.06
   9   1     0.02  -0.02  -0.03     0.01  -0.01  -0.03     0.00   0.01   0.02
  10   1    -0.06   0.00  -0.02    -0.00  -0.03  -0.01    -0.00  -0.01   0.02
  11   1     0.02  -0.05   0.03    -0.03   0.03  -0.07    -0.01   0.03  -0.10
  12   1     0.05  -0.04   0.03     0.02   0.02  -0.05    -0.00   0.01  -0.03
  13   6     0.17   0.10  -0.08     0.03  -0.29  -0.37     0.02   0.11   0.16
  14   6     0.28   0.11  -0.07     0.02   0.13   0.26     0.05  -0.05  -0.03
  15   6    -0.26   0.27  -0.19    -0.01   0.17   0.26    -0.03  -0.04  -0.05
  16   6     0.30  -0.30   0.22     0.04  -0.21  -0.25     0.06   0.03   0.13
  17   1     0.00   0.06  -0.05     0.00   0.12   0.20     0.02  -0.11  -0.14
  18   6    -0.29  -0.15   0.10    -0.02  -0.19  -0.27    -0.05   0.06   0.11
  19   1    -0.06   0.08  -0.06    -0.01   0.13   0.18    -0.02  -0.11  -0.12
  20   6    -0.16  -0.12   0.09    -0.03   0.16   0.21    -0.02  -0.03  -0.03
  21   1     0.08  -0.09   0.06     0.02   0.00   0.00     0.03  -0.08  -0.09
  22   1    -0.00  -0.07   0.06    -0.01   0.00  -0.00    -0.01  -0.07  -0.09
  23   1    -0.05   0.07  -0.05    -0.01   0.13   0.16    -0.00  -0.08  -0.15
                     19                     20                     21
                        a                      a                      a 
 Frequencies --   726.3798               758.8011               787.6332
 Red. masses --    11.0927                 4.5096                 3.6854
 Frc consts  --     0.0000                 0.0000                 0.0000
 IR Inten    --     6.9251                36.2249                21.6894
 Raman Activ --     0.0000                 0.0000                 0.0000
 Depolar     --     0.0000                 0.0000                 0.0000
 Atom AN      X      Y      Z        X      Y      Z        X      Y      Z
   1   6     0.09   0.19   0.04     0.05   0.03   0.09    -0.02  -0.07   0.17
   2   6    -0.15  -0.02   0.01    -0.04  -0.02   0.03     0.01  -0.05   0.19
   3   6     0.24  -0.25  -0.09    -0.04  -0.03   0.08     0.01  -0.04   0.16
   4   6     0.16  -0.13   0.02    -0.01   0.06  -0.15     0.01   0.05  -0.17
   5   6     0.12   0.12  -0.02     0.02  -0.03   0.12    -0.00   0.05  -0.19
   6   6     0.04   0.31   0.10     0.03   0.03   0.05    -0.02  -0.05   0.15
   7   1     0.01   0.09   0.02     0.01   0.05  -0.15     0.00   0.09  -0.31
   8   8    -0.06  -0.19  -0.07     0.01   0.01   0.04    -0.01  -0.02   0.04
   9   1    -0.01   0.01   0.01    -0.00  -0.03   0.04    -0.00  -0.01   0.01
  10   1    -0.04   0.03   0.00    -0.01   0.01  -0.14     0.01   0.14  -0.45
  11   1     0.14  -0.02  -0.01    -0.01   0.03  -0.10     0.01   0.10  -0.34
  12   1     0.12   0.01   0.00     0.04   0.05  -0.17    -0.00   0.13  -0.49
  13   6    -0.21  -0.01  -0.00    -0.00  -0.21  -0.30    -0.00   0.10   0.14
  14   6    -0.12   0.16  -0.13    -0.02   0.11   0.14     0.02  -0.04  -0.02
  15   6    -0.13  -0.18   0.13    -0.01   0.08   0.13    -0.00  -0.04  -0.03
  16   6    -0.14   0.22  -0.18    -0.02   0.08   0.07     0.03  -0.03  -0.01
  17   1     0.02   0.04   0.01     0.00  -0.16  -0.22     0.00   0.03   0.05
  18   6    -0.15  -0.25   0.17    -0.00   0.05   0.09    -0.02  -0.02  -0.03
  19   1     0.02  -0.02   0.03     0.00  -0.16  -0.19    -0.01   0.04   0.05
  20   6     0.30   0.00  -0.01     0.02   0.11   0.15    -0.00  -0.04  -0.06
  21   1    -0.13   0.03   0.00    -0.00  -0.21  -0.30     0.01   0.06   0.09
  22   1    -0.14  -0.01   0.03    -0.00  -0.21  -0.29    -0.01   0.07   0.09
  23   1     0.08   0.02   0.02     0.01  -0.26  -0.35    -0.00   0.10   0.12
                     22                     23                     24
                        a                      a                      a 
 Frequencies --   820.9484               877.5070               883.0067
 Red. masses --    11.9435                 3.4621                 3.2976
 Frc consts  --     0.0000                 0.0000                 0.0000
 IR Inten    --    35.8367                 0.7653                 0.8786
 Raman Activ --     0.0000                 0.0000                 0.0000
 Depolar     --     0.0000                 0.0000                 0.0000
 Atom AN      X      Y      Z        X      Y      Z        X      Y      Z
   1   6    -0.14  -0.30  -0.09    -0.01  -0.06   0.19    -0.01  -0.03   0.09
   2   6     0.49   0.05   0.03     0.01   0.03  -0.13    -0.00   0.01  -0.03
   3   6     0.14   0.14   0.04     0.01   0.09  -0.29     0.00   0.04  -0.11
   4   6    -0.04   0.01   0.02    -0.01  -0.02   0.06    -0.00  -0.00   0.03
   5   6    -0.07   0.21   0.05     0.00   0.01  -0.03     0.01   0.00  -0.01
   6   6    -0.24   0.37   0.10    -0.00  -0.05   0.20    -0.00  -0.02   0.04
   7   1     0.04   0.17   0.06     0.00   0.12  -0.42     0.01   0.03  -0.11
   8   8    -0.21  -0.41  -0.14     0.00   0.00  -0.02    -0.00   0.01  -0.01
   9   1    -0.05  -0.11  -0.02     0.00   0.01  -0.02    -0.00  -0.01   0.03
  10   1     0.13   0.11   0.04    -0.00  -0.06   0.19    -0.00  -0.01   0.05
  11   1     0.00   0.01   0.00    -0.01  -0.17   0.57    -0.00  -0.06   0.21
  12   1    -0.05  -0.07  -0.02     0.00   0.09  -0.31    -0.00   0.04  -0.15
  13   6    -0.00  -0.03  -0.04    -0.00   0.00   0.00    -0.00   0.01   0.01
  14   6     0.03  -0.02   0.03    -0.00   0.06   0.09     0.00  -0.13  -0.18
  15   6     0.02   0.02  -0.00    -0.00  -0.03  -0.03    -0.00   0.10   0.12
  16   6     0.05  -0.04   0.04     0.00   0.03   0.05     0.01  -0.13  -0.17
  17   1     0.01  -0.01  -0.01    -0.00  -0.12  -0.16    -0.01   0.27   0.37
  18   6     0.02   0.04  -0.02    -0.00  -0.05  -0.07     0.00   0.15   0.19
  19   1     0.00  -0.00  -0.01     0.00   0.06   0.08    -0.01  -0.22  -0.27
  20   6    -0.04   0.01   0.01     0.00  -0.02  -0.03     0.00   0.02   0.03
  21   1     0.03  -0.02  -0.01     0.00  -0.06  -0.08    -0.00   0.23   0.33
  22   1     0.02  -0.01  -0.02    -0.01   0.10   0.14     0.01  -0.27  -0.37
  23   1    -0.01  -0.02  -0.04    -0.00   0.04   0.05     0.00  -0.03  -0.04
                     25                     26                     27
                        a                      a                      a 
 Frequencies --   905.6929               914.3628               923.7167
 Red. masses --     3.7265                 3.9270                 3.0430
 Frc consts  --     0.0000                 0.0000                 0.0000
 IR Inten    --     0.1815                 1.4537                 0.2117
 Raman Activ --     0.0000                 0.0000                 0.0000
 Depolar     --     0.0000                 0.0000                 0.0000
 Atom AN      X      Y      Z        X      Y      Z        X      Y      Z
   1   6    -0.01  -0.03   0.09    -0.01   0.04  -0.16     0.00  -0.07   0.24
   2   6    -0.01  -0.01   0.06     0.00   0.07  -0.22     0.01   0.08  -0.27
   3   6     0.01   0.02  -0.09     0.00  -0.06   0.20    -0.00  -0.04   0.12
   4   6     0.00  -0.02   0.02     0.00   0.01  -0.05     0.00  -0.02   0.07
   5   6    -0.01   0.01  -0.01     0.00   0.02  -0.07    -0.00   0.02  -0.07
   6   6     0.00   0.01  -0.11    -0.00  -0.10   0.30    -0.00   0.04  -0.11
   7   1     0.00  -0.05   0.17     0.01   0.16  -0.53    -0.00  -0.09   0.30
   8   8     0.01   0.00  -0.00     0.00  -0.01   0.01    -0.00  -0.00   0.00
   9   1     0.01   0.02  -0.03     0.00   0.01  -0.02     0.00   0.00   0.00
  10   1    -0.00   0.03  -0.10    -0.01  -0.10   0.38    -0.01  -0.16   0.56
  11   1     0.01  -0.04   0.13     0.01   0.09  -0.31     0.00   0.09  -0.31
  12   1    -0.00   0.05  -0.17    -0.01  -0.07   0.27     0.01   0.14  -0.50
  13   6    -0.00   0.04   0.07    -0.00   0.03   0.04    -0.00  -0.00  -0.01
  14   6     0.00  -0.13  -0.18     0.00  -0.06  -0.05     0.00  -0.00  -0.01
  15   6     0.01  -0.13  -0.17     0.00  -0.06  -0.07     0.00   0.02   0.02
  16   6     0.00   0.05   0.06     0.01  -0.02  -0.02    -0.00   0.02   0.03
  17   1    -0.00   0.23   0.33    -0.01   0.09   0.12     0.01   0.00   0.01
  18   6    -0.01  -0.04  -0.05    -0.01  -0.00  -0.00    -0.00  -0.01  -0.01
  19   1     0.01   0.28   0.35     0.00   0.10   0.13    -0.00  -0.03  -0.03
  20   6    -0.01   0.19   0.25    -0.00   0.08   0.10    -0.00  -0.02  -0.03
  21   1     0.01  -0.11  -0.15     0.01   0.02   0.03    -0.00  -0.04  -0.05
  22   1    -0.00   0.03   0.04    -0.01  -0.00  -0.01     0.00   0.01   0.01
  23   1     0.00  -0.29  -0.41     0.00  -0.12  -0.18    -0.00   0.04   0.05
                     28                     29                     30
                        a                      a                      a 
 Frequencies --   932.2214               935.2325               960.6564
 Red. masses --     3.3768                 3.4409                11.3188
 Frc consts  --     0.0000                 0.0000                 0.0000
 IR Inten    --     0.2561                 0.8841                 3.2966
 Raman Activ --     0.0000                 0.0000                 0.0000
 Depolar     --     0.0000                 0.0000                 0.0000
 Atom AN      X      Y      Z        X      Y      Z        X      Y      Z
   1   6     0.00  -0.01   0.04    -0.00  -0.00  -0.01    -0.09  -0.14  -0.04
   2   6     0.00  -0.00  -0.00     0.00  -0.00   0.00     0.06  -0.01  -0.00
   3   6     0.00  -0.00  -0.00     0.00   0.00  -0.00    -0.15   0.15   0.04
   4   6     0.00  -0.00   0.01    -0.00   0.01   0.00    -0.04  -0.04  -0.01
   5   6    -0.00  -0.00  -0.00     0.00  -0.00   0.00     0.23  -0.03  -0.01
   6   6     0.00   0.02  -0.04    -0.00  -0.00   0.01    -0.04   0.01  -0.00
   7   1    -0.01  -0.03   0.10     0.00   0.01  -0.02    -0.04  -0.03   0.00
   8   8     0.00  -0.00  -0.00    -0.01   0.00  -0.00     0.03   0.07   0.02
   9   1     0.00   0.01  -0.01    -0.01  -0.02   0.04     0.01  -0.00  -0.00
  10   1     0.00  -0.01   0.01     0.00   0.00  -0.01     0.01  -0.03  -0.01
  11   1    -0.00   0.00  -0.01    -0.00  -0.00   0.01    -0.07   0.03   0.00
  12   1     0.00   0.02  -0.07    -0.00  -0.01   0.02    -0.04  -0.03  -0.01
  13   6    -0.00   0.03   0.04     0.00   0.02   0.03     0.31   0.01   0.01
  14   6     0.00   0.13   0.17     0.00  -0.08  -0.12    -0.17  -0.32   0.22
  15   6     0.00  -0.07  -0.09    -0.01   0.17   0.21    -0.19   0.31  -0.24
  16   6     0.00  -0.20  -0.27    -0.00   0.03   0.04    -0.15   0.22  -0.17
  17   1     0.01  -0.26  -0.36    -0.00   0.09   0.12    -0.03  -0.09   0.06
  18   6     0.00  -0.00  -0.00     0.02  -0.19  -0.26    -0.13  -0.22   0.16
  19   1     0.00   0.05   0.07    -0.02  -0.36  -0.44    -0.03   0.10  -0.06
  20   6    -0.01   0.11   0.16     0.01   0.07   0.10     0.37   0.01   0.00
  21   1    -0.01   0.37   0.51    -0.01   0.00   0.01    -0.02   0.07  -0.04
  22   1    -0.00   0.06   0.08     0.00   0.35   0.48    -0.01  -0.07   0.05
  23   1     0.00  -0.23  -0.32     0.01  -0.16  -0.21     0.10  -0.00  -0.00
                     31                     32                     33
                        a                      a                      a 
 Frequencies --  1031.6826              1081.8892              1087.3037
 Red. masses --    10.3090                 7.0543                 5.4958
 Frc consts  --     0.0000                 0.0000                 0.0000
 IR Inten    --     0.4359                 9.3607                12.0669
 Raman Activ --     0.0000                 0.0000                 0.0000
 Depolar     --     0.0000                 0.0000                 0.0000
 Atom AN      X      Y      Z        X      Y      Z        X      Y      Z
   1   6    -0.09  -0.24  -0.07     0.02  -0.10  -0.03    -0.02  -0.32  -0.09
   2   6     0.02  -0.03  -0.01    -0.10   0.00  -0.00    -0.36   0.07   0.01
   3   6    -0.28   0.29   0.08    -0.06   0.11   0.03    -0.00   0.20   0.06
   4   6     0.03  -0.16  -0.05     0.06  -0.06  -0.02     0.08  -0.03  -0.01
   5   6     0.40  -0.07  -0.02    -0.02   0.00   0.00    -0.12   0.09   0.03
   6   6    -0.07   0.10   0.03     0.01   0.03   0.01     0.18  -0.07  -0.02
   7   1    -0.06  -0.01  -0.01     0.07   0.05   0.03     0.37   0.18   0.06
   8   8     0.09   0.07   0.03     0.04  -0.04  -0.01     0.01  -0.07  -0.02
   9   1     0.03   0.20   0.05     0.02   0.20   0.05     0.01   0.15   0.05
  10   1     0.00  -0.11  -0.03    -0.03  -0.04  -0.01    -0.11   0.10   0.03
  11   1    -0.05   0.09   0.03     0.10   0.10   0.03     0.39   0.29   0.09
  12   1     0.03  -0.10  -0.02     0.09  -0.07  -0.02     0.13  -0.17  -0.04
  13   6     0.22   0.01   0.01    -0.06   0.00  -0.00    -0.10  -0.01  -0.02
  14   6     0.10   0.28  -0.21    -0.16  -0.03   0.02     0.03  -0.05   0.04
  15   6     0.11  -0.27   0.20    -0.16   0.02  -0.03     0.02   0.06  -0.03
  16   6    -0.11   0.08  -0.06     0.08  -0.29   0.21     0.02   0.07  -0.05
  17   1    -0.05   0.12  -0.07    -0.26   0.08  -0.07     0.14  -0.08   0.04
  18   6    -0.10  -0.08   0.05     0.07   0.29  -0.21     0.02  -0.06   0.05
  19   1    -0.04  -0.11   0.09    -0.26  -0.08   0.08     0.09   0.05  -0.05
  20   6    -0.20  -0.01   0.00     0.43   0.01   0.00    -0.11  -0.01   0.00
  21   1    -0.12  -0.02   0.01    -0.20  -0.20   0.14     0.11   0.07  -0.05
  22   1    -0.11   0.01  -0.01    -0.21   0.18  -0.14     0.12  -0.07   0.05
  23   1    -0.06  -0.01   0.01     0.13   0.00  -0.00    -0.03  -0.00   0.00
                     34                     35                     36
                        a                      a                      a 
 Frequencies --  1105.8961              1119.9717              1144.9338
 Red. masses --     4.5881                 4.1647                 4.5898
 Frc consts  --     0.0000                 0.0000                 0.0000
 IR Inten    --   151.7233                16.1932               169.1020
 Raman Activ --     0.0000                 0.0000                 0.0000
 Depolar     --     0.0000                 0.0000                 0.0000
 Atom AN      X      Y      Z        X      Y      Z        X      Y      Z
   1   6    -0.13  -0.14  -0.04    -0.02  -0.01  -0.00     0.10   0.04   0.01
   2   6    -0.07   0.06   0.01     0.01   0.00  -0.00     0.11  -0.12  -0.03
   3   6     0.12  -0.04  -0.01     0.03  -0.01   0.00     0.05   0.11   0.03
   4   6    -0.18   0.06   0.03    -0.06   0.00   0.00    -0.06  -0.17  -0.04
   5   6     0.15   0.07   0.02     0.03  -0.01  -0.04    -0.03  -0.17  -0.05
   6   6     0.20  -0.13  -0.04     0.03   0.01   0.01    -0.22   0.17   0.04
   7   1     0.13  -0.00   0.01     0.04   0.03  -0.01    -0.24  -0.07  -0.03
   8   8    -0.11   0.18   0.04    -0.03   0.07   0.01    -0.02   0.26   0.07
   9   1    -0.05  -0.62  -0.18    -0.01  -0.18  -0.06    -0.02  -0.35  -0.10
  10   1    -0.04   0.29   0.08    -0.00   0.05   0.01     0.05  -0.39  -0.11
  11   1     0.16   0.07   0.02     0.04   0.02   0.00     0.39   0.26   0.08
  12   1    -0.14   0.01  -0.00    -0.02   0.00  -0.00     0.28  -0.10  -0.02
  13   6     0.18   0.03  -0.04     0.03  -0.14   0.09    -0.15   0.00   0.03
  14   6    -0.03   0.05  -0.03     0.22   0.13  -0.09    -0.02  -0.03   0.01
  15   6     0.06  -0.11   0.08    -0.22   0.09  -0.08    -0.01   0.03  -0.02
  16   6    -0.03  -0.04   0.03    -0.12   0.11  -0.08     0.04  -0.03   0.02
  17   1    -0.18   0.08  -0.08     0.36  -0.09   0.08     0.02  -0.01   0.02
  18   6    -0.08  -0.02   0.02     0.10   0.14  -0.09     0.03   0.02  -0.02
  19   1    -0.00  -0.03   0.04    -0.38  -0.10   0.12     0.10   0.06  -0.04
  20   6     0.04   0.04  -0.03     0.02  -0.16   0.12    -0.00   0.01  -0.00
  21   1    -0.07  -0.04   0.03    -0.28  -0.09   0.06     0.05   0.01  -0.01
  22   1    -0.20   0.07  -0.05     0.22  -0.05   0.03     0.03   0.00   0.00
  23   1     0.01   0.08  -0.06     0.01  -0.38   0.27     0.00   0.01  -0.01
                     37                     38                     39
                        a                      a                      a 
 Frequencies --  1174.9695              1180.2585              1197.4134
 Red. masses --     1.5569                 1.3161                 1.7595
 Frc consts  --     0.0000                 0.0000                 0.0000
 IR Inten    --     0.0105                 0.4005                 0.0853
 Raman Activ --     0.0000                 0.0000                 0.0000
 Depolar     --     0.0000                 0.0000                 0.0000
 Atom AN      X      Y      Z        X      Y      Z        X      Y      Z
   1   6     0.07  -0.05  -0.01     0.01  -0.00  -0.00    -0.01  -0.01  -0.00
   2   6    -0.04   0.06   0.02     0.00   0.01   0.00     0.00   0.01   0.00
   3   6     0.02   0.10   0.03    -0.00   0.01   0.00    -0.02   0.01   0.00
   4   6    -0.03   0.04   0.01    -0.01  -0.01  -0.00     0.02  -0.04  -0.01
   5   6     0.01  -0.13  -0.04     0.01  -0.02   0.00     0.06  -0.02  -0.00
   6   6     0.00   0.00  -0.00    -0.00   0.00   0.00     0.00   0.01   0.00
   7   1    -0.24  -0.15  -0.05    -0.03  -0.01  -0.01     0.04   0.03   0.00
   8   8    -0.03   0.01   0.00    -0.00   0.01   0.00     0.01   0.02   0.01
   9   1    -0.01  -0.04  -0.01    -0.00  -0.02  -0.01     0.00   0.02   0.01
  10   1    -0.04   0.50   0.14    -0.00   0.05   0.01    -0.00   0.01   0.00
  11   1    -0.23  -0.12  -0.04    -0.02  -0.01  -0.00    -0.06  -0.03  -0.01
  12   1     0.64  -0.31  -0.08     0.06  -0.03  -0.01    -0.02   0.01   0.00
  13   6    -0.06   0.00   0.01    -0.01  -0.06   0.04    -0.04   0.01  -0.01
  14   6     0.00  -0.01   0.00    -0.07  -0.00   0.00     0.08  -0.06   0.05
  15   6    -0.02   0.01  -0.01     0.08   0.00  -0.00     0.10   0.07  -0.04
  16   6     0.01  -0.01   0.00    -0.04  -0.02   0.01    -0.08  -0.08   0.05
  17   1    -0.01   0.01   0.00     0.15  -0.08   0.06     0.43  -0.20   0.15
  18   6     0.01   0.01  -0.01     0.03  -0.01   0.01    -0.09   0.06  -0.05
  19   1     0.04   0.02  -0.02    -0.10  -0.05   0.05     0.43   0.20  -0.17
  20   6     0.00  -0.00   0.00    -0.00   0.07  -0.05    -0.04  -0.00   0.00
  21   1     0.05   0.02  -0.02    -0.41  -0.21   0.14    -0.35  -0.19   0.13
  22   1    -0.02   0.01  -0.01     0.39  -0.17   0.13    -0.43   0.20  -0.14
  23   1     0.00  -0.06   0.04    -0.01   0.57  -0.41    -0.01  -0.01   0.01
                     40                     41                     42
                        a                      a                      a 
 Frequencies --  1231.4440              1258.4347              1281.1408
 Red. masses --     8.6585                 4.3995                 3.4639
 Frc consts  --     0.0000                 0.0000                 0.0000
 IR Inten    --   205.2197                15.4566                 1.7375
 Raman Activ --     0.0000                 0.0000                 0.0000
 Depolar     --     0.0000                 0.0000                 0.0000
 Atom AN      X      Y      Z        X      Y      Z        X      Y      Z
   1   6    -0.02   0.05   0.01    -0.11   0.07   0.02     0.03  -0.03  -0.00
   2   6     0.14   0.05   0.02    -0.14   0.07   0.02     0.02  -0.04  -0.01
   3   6    -0.12  -0.08  -0.02     0.13   0.18   0.05    -0.05  -0.03  -0.01
   4   6    -0.15  -0.51  -0.16     0.28   0.13   0.05    -0.06  -0.00  -0.00
   5   6     0.10  -0.23  -0.06    -0.03  -0.25  -0.08     0.03   0.05  -0.02
   6   6    -0.02   0.21   0.06    -0.06  -0.01  -0.00     0.05   0.03   0.01
   7   1     0.34   0.28   0.09     0.39   0.26   0.08    -0.08  -0.05  -0.01
   8   8     0.12   0.30   0.10    -0.13  -0.03  -0.02     0.03  -0.01  -0.00
   9   1     0.02   0.01  -0.00    -0.04  -0.25  -0.07     0.01   0.08   0.03
  10   1     0.03   0.26   0.07    -0.02  -0.35  -0.10    -0.00   0.12   0.03
  11   1    -0.13  -0.09  -0.03    -0.36  -0.18  -0.06     0.08   0.05   0.01
  12   1    -0.09   0.06   0.02     0.20  -0.09  -0.02    -0.10   0.04   0.01
  13   6    -0.22   0.01   0.01     0.05  -0.07   0.09    -0.03  -0.26   0.17
  14   6    -0.09   0.00  -0.00     0.03   0.01  -0.01     0.14  -0.03   0.02
  15   6    -0.05   0.00  -0.00    -0.01   0.00  -0.01    -0.15  -0.02   0.02
  16   6     0.06  -0.05   0.03     0.01   0.04  -0.03     0.09   0.08  -0.06
  17   1     0.01  -0.02   0.01    -0.15   0.07  -0.06    -0.38   0.18  -0.14
  18   6     0.06   0.04  -0.03    -0.02   0.01  -0.01    -0.09   0.09  -0.07
  19   1     0.03   0.02  -0.02     0.09   0.05  -0.03     0.42   0.21  -0.17
  20   6     0.03  -0.00   0.00    -0.00   0.02  -0.01    -0.00   0.12  -0.09
  21   1     0.14   0.05  -0.03    -0.07  -0.02   0.02    -0.29  -0.13   0.09
  22   1     0.09  -0.02   0.02     0.06  -0.02   0.02     0.30  -0.12   0.09
  23   1     0.01   0.02  -0.01    -0.00  -0.02   0.02     0.00  -0.19   0.14
                     43                     44                     45
                        a                      a                      a 
 Frequencies --  1292.4485              1314.2063              1326.0128
 Red. masses --     8.8193                11.8459                11.5224
 Frc consts  --     0.0000                 0.0000                 0.0000
 IR Inten    --     2.8181                 0.4647                43.6700
 Raman Activ --     0.0000                 0.0000                 0.0000
 Depolar     --     0.0000                 0.0000                 0.0000
 Atom AN      X      Y      Z        X      Y      Z        X      Y      Z
   1   6     0.07   0.18   0.05     0.06  -0.05  -0.01     0.33  -0.15  -0.03
   2   6     0.14   0.01   0.01    -0.02   0.05   0.01    -0.01   0.39   0.11
   3   6     0.03  -0.17  -0.05    -0.06  -0.02  -0.00    -0.28  -0.20  -0.06
   4   6    -0.22  -0.08  -0.04     0.07  -0.01   0.00     0.34  -0.23  -0.06
   5   6    -0.45  -0.09  -0.03     0.04   0.08   0.01    -0.04   0.39   0.10
   6   6    -0.19  -0.02  -0.00    -0.02  -0.03  -0.01    -0.35  -0.22  -0.06
   7   1     0.19   0.16   0.04    -0.03  -0.02  -0.01     0.01   0.01  -0.00
   8   8     0.08   0.04   0.02    -0.01   0.00  -0.00    -0.01   0.08   0.02
   9   1     0.02   0.16   0.04    -0.01  -0.04  -0.01    -0.01  -0.17  -0.05
  10   1     0.04   0.07   0.02    -0.01   0.02   0.00     0.01  -0.03  -0.01
  11   1     0.18   0.05   0.02    -0.01  -0.00  -0.00    -0.06  -0.05  -0.01
  12   1     0.21  -0.04  -0.01    -0.03   0.01   0.00     0.05  -0.02  -0.01
  13   6     0.43  -0.03   0.04    -0.03  -0.35   0.24     0.02   0.04  -0.04
  14   6     0.12  -0.02   0.01    -0.37   0.17  -0.12     0.07  -0.03   0.03
  15   6     0.19   0.06  -0.03     0.33   0.18  -0.12    -0.05  -0.03   0.02
  16   6    -0.04   0.13  -0.10     0.32   0.15  -0.10    -0.02  -0.01   0.01
  17   1    -0.14   0.08  -0.06     0.02  -0.01   0.00    -0.02   0.01  -0.01
  18   6    -0.10  -0.10   0.07    -0.31   0.15  -0.12     0.02  -0.02   0.02
  19   1    -0.09  -0.06   0.04    -0.00   0.00  -0.00     0.00  -0.00  -0.00
  20   6    -0.08  -0.03   0.02     0.02  -0.34   0.24    -0.01   0.06  -0.04
  21   1    -0.19  -0.05   0.03     0.07   0.03  -0.02    -0.04  -0.02   0.01
  22   1    -0.18   0.04  -0.03    -0.04   0.02  -0.01     0.02  -0.01   0.01
  23   1    -0.03  -0.00   0.00     0.00   0.03  -0.03    -0.00  -0.04   0.02
                     46                     47                     48
                        a                      a                      a 
 Frequencies --  1420.2381              1440.6306              1459.2460
 Red. masses --     8.8784                 9.2494                 9.0010
 Frc consts  --     0.0000                 0.0000                 0.0000
 IR Inten    --    15.3697                17.6785                68.8547
 Raman Activ --     0.0000                 0.0000                 0.0000
 Depolar     --     0.0000                 0.0000                 0.0000
 Atom AN      X      Y      Z        X      Y      Z        X      Y      Z
   1   6     0.25  -0.03  -0.00     0.32  -0.04  -0.01    -0.02  -0.17  -0.05
   2   6    -0.06  -0.14  -0.04    -0.11  -0.26  -0.08    -0.14   0.10   0.03
   3   6    -0.17   0.05   0.01    -0.14   0.15   0.04     0.24   0.14   0.05
   4   6     0.21   0.12   0.04     0.31   0.09   0.03    -0.03  -0.31  -0.09
   5   6    -0.07  -0.16  -0.07    -0.14  -0.27  -0.05    -0.16   0.12   0.03
   6   6    -0.09   0.11   0.03    -0.10   0.19   0.05     0.24   0.14   0.04
   7   1    -0.02   0.04   0.00    -0.06   0.04   0.01    -0.18  -0.12  -0.03
   8   8    -0.05  -0.03  -0.01    -0.07  -0.01  -0.01     0.02   0.09   0.03
   9   1    -0.01  -0.07  -0.01    -0.02  -0.12  -0.03     0.00  -0.00  -0.01
  10   1    -0.03   0.19   0.05    -0.05   0.23   0.07    -0.03  -0.12  -0.04
  11   1     0.03   0.07   0.02    -0.01   0.06   0.02    -0.18  -0.11  -0.04
  12   1    -0.15   0.10   0.03    -0.21   0.14   0.04    -0.10  -0.01  -0.00
  13   6     0.01  -0.24   0.19    -0.03   0.21  -0.12    -0.22  -0.05   0.01
  14   6     0.23   0.09  -0.06    -0.10  -0.11   0.07     0.18  -0.14   0.11
  15   6    -0.19   0.11  -0.09     0.21  -0.01   0.01     0.11   0.16  -0.11
  16   6    -0.30   0.03  -0.03     0.23   0.02  -0.01     0.13   0.17  -0.12
  17   1    -0.08   0.10  -0.06    -0.00  -0.04   0.04    -0.19   0.06  -0.05
  18   6     0.33   0.00   0.00    -0.15  -0.09   0.06     0.20  -0.14   0.11
  19   1     0.03   0.08  -0.05    -0.12  -0.09   0.07    -0.17  -0.05   0.04
  20   6    -0.02  -0.19   0.14    -0.06   0.16  -0.12    -0.19  -0.04   0.03
  21   1     0.11   0.11  -0.08    -0.13  -0.09   0.07    -0.17  -0.05   0.03
  22   1    -0.16   0.12  -0.09     0.02  -0.05   0.04    -0.19   0.06  -0.05
  23   1    -0.01   0.25  -0.18    -0.01  -0.16   0.12    -0.06   0.03  -0.02
                     49                     50                     51
                        a                      a                      a 
 Frequencies --  1491.8479              1573.9430              1581.0959
 Red. masses --    10.0580                11.4961                11.5465
 Frc consts  --     0.0000                 0.0000                 0.0000
 IR Inten    --    47.8622                42.9928                19.0477
 Raman Activ --     0.0000                 0.0000                 0.0000
 Depolar     --     0.0000                 0.0000                 0.0000
 Atom AN      X      Y      Z        X      Y      Z        X      Y      Z
   1   6    -0.15   0.16   0.04    -0.22   0.26   0.07    -0.20   0.17   0.05
   2   6     0.17  -0.03  -0.00     0.08  -0.44  -0.12     0.07  -0.27  -0.08
   3   6    -0.23  -0.16  -0.05    -0.03   0.21   0.06    -0.04   0.12   0.04
   4   6    -0.01   0.25   0.08     0.25  -0.22  -0.06     0.18  -0.17  -0.05
   5   6     0.41  -0.02  -0.00    -0.09   0.31   0.09    -0.08   0.24   0.05
   6   6    -0.13  -0.17  -0.05    -0.00  -0.16  -0.05     0.06  -0.10  -0.02
   7   1     0.16   0.07   0.03     0.05  -0.01   0.00     0.02  -0.02  -0.01
   8   8    -0.01  -0.07  -0.02    -0.02   0.03   0.01    -0.01   0.02   0.01
   9   1     0.00   0.01   0.01    -0.01  -0.06  -0.02    -0.00  -0.04  -0.01
  10   1     0.05   0.04   0.01     0.01   0.11   0.03     0.01   0.06   0.02
  11   1     0.14   0.08   0.03    -0.04   0.04   0.01    -0.02   0.02   0.00
  12   1     0.13  -0.04  -0.01     0.07   0.01   0.00     0.06  -0.01  -0.00
  13   6    -0.39   0.00  -0.00     0.03   0.19  -0.14     0.02  -0.33   0.21
  14   6     0.08  -0.13   0.10     0.08  -0.11   0.08    -0.13   0.18  -0.13
  15   6     0.09   0.12  -0.10    -0.13  -0.13   0.10     0.12   0.18  -0.13
  16   6     0.19   0.13  -0.09     0.08   0.15  -0.11    -0.09  -0.20   0.15
  17   1    -0.14   0.03  -0.03    -0.05   0.00  -0.01     0.07  -0.00  -0.00
  18   6     0.19  -0.13   0.10    -0.04   0.14  -0.10     0.10  -0.20   0.15
  19   1    -0.15  -0.04   0.04     0.06   0.01  -0.01    -0.07  -0.00   0.00
  20   6    -0.17   0.00  -0.01    -0.00  -0.27   0.19    -0.01   0.37  -0.27
  21   1    -0.14  -0.06   0.04    -0.04   0.01  -0.01     0.06  -0.01   0.01
  22   1    -0.14   0.05  -0.03     0.04   0.02  -0.01    -0.06  -0.02   0.01
  23   1    -0.05  -0.01   0.00    -0.00   0.07  -0.05     0.00  -0.09   0.07
                     52                     53                     54
                        a                      a                      a 
 Frequencies --  1595.8560              1601.0592              3067.9209
 Red. masses --    11.4812                11.5131                 1.7890
 Frc consts  --     0.0000                 0.0000                 0.0000
 IR Inten    --    25.6317                11.6865                25.8933
 Raman Activ --     0.0000                 0.0000                 0.0000
 Depolar     --     0.0000                 0.0000                 0.0000
 Atom AN      X      Y      Z        X      Y      Z        X      Y      Z
   1   6    -0.18  -0.02  -0.01     0.32  -0.01   0.00     0.00   0.00   0.00
   2   6     0.09   0.14   0.04    -0.16  -0.16  -0.05     0.00  -0.00  -0.00
   3   6    -0.22  -0.15  -0.05     0.36   0.21   0.07    -0.00   0.00   0.00
   4   6     0.18   0.03   0.01    -0.31  -0.01  -0.01     0.00   0.00  -0.00
   5   6    -0.18  -0.11  -0.03     0.19   0.12   0.03     0.00  -0.00   0.00
   6   6     0.24   0.13   0.04    -0.39  -0.18  -0.06     0.00  -0.00  -0.00
   7   1    -0.06  -0.04  -0.01     0.08   0.07   0.02    -0.00   0.01   0.00
   8   8    -0.01   0.00  -0.00     0.02  -0.02  -0.00    -0.00  -0.00   0.00
   9   1    -0.00  -0.03  -0.01     0.00   0.06   0.02     0.00  -0.00  -0.00
  10   1     0.03  -0.03  -0.01    -0.05   0.03   0.01    -0.00  -0.00  -0.00
  11   1     0.05   0.03   0.01    -0.07  -0.04  -0.02     0.00  -0.00  -0.00
  12   1     0.02  -0.04  -0.01    -0.04   0.06   0.02    -0.00  -0.00  -0.00
  13   6     0.26   0.02  -0.00     0.11  -0.03   0.02    -0.01   0.00  -0.00
  14   6    -0.37   0.07  -0.06    -0.25   0.07  -0.05     0.02   0.02  -0.01
  15   6    -0.36  -0.09   0.07    -0.24  -0.04   0.03    -0.13   0.16  -0.13
  16   6     0.36   0.10  -0.06     0.23   0.05  -0.03     0.01  -0.01   0.00
  17   1     0.07  -0.05   0.04     0.04  -0.03   0.02    -0.05  -0.07   0.05
  18   6     0.35  -0.08   0.06     0.26  -0.07   0.06    -0.05  -0.07   0.05
  19   1     0.06   0.05  -0.04     0.04   0.03  -0.03     0.45  -0.59   0.47
  20   6    -0.17  -0.00  -0.00    -0.12   0.03  -0.02     0.01  -0.00   0.00
  21   1    -0.06  -0.05   0.04    -0.03  -0.03   0.02    -0.02   0.03  -0.02
  22   1    -0.06   0.04  -0.04    -0.05   0.03  -0.02     0.19   0.27  -0.20
  23   1    -0.04  -0.00   0.00    -0.03  -0.01   0.00    -0.06   0.00  -0.00
                     55                     56                     57
                        a                      a                      a 
 Frequencies --  3073.8414              3077.0706              3079.8060
 Red. masses --     1.7521                 1.7746                 1.8180
 Frc consts  --     0.0000                 0.0000                 0.0000
 IR Inten    --    10.9309                25.1217                53.0096
 Raman Activ --     0.0000                 0.0000                 0.0000
 Depolar     --     0.0000                 0.0000                 0.0000
 Atom AN      X      Y      Z        X      Y      Z        X      Y      Z
   1   6    -0.01  -0.01  -0.00    -0.06  -0.11  -0.03     0.01   0.02   0.01
   2   6     0.00  -0.00  -0.00     0.03  -0.00   0.00    -0.01  -0.00  -0.00
   3   6    -0.00   0.00   0.00    -0.00   0.00   0.00     0.00  -0.00  -0.00
   4   6     0.00  -0.00  -0.00     0.00  -0.00  -0.00     0.00   0.00   0.00
   5   6    -0.00   0.00  -0.00    -0.01   0.00   0.00     0.00  -0.00  -0.00
   6   6    -0.02   0.03   0.01    -0.12   0.18   0.05     0.02  -0.02  -0.01
   7   1     0.07  -0.10  -0.03     0.45  -0.64  -0.18    -0.06   0.08   0.02
   8   8    -0.00   0.00   0.00    -0.00   0.00   0.00    -0.00  -0.00   0.00
   9   1     0.00  -0.00   0.00     0.00  -0.00  -0.00     0.00  -0.00  -0.00
  10   1    -0.01  -0.00  -0.00    -0.13  -0.00  -0.00     0.04   0.00   0.00
  11   1     0.00  -0.00  -0.00     0.01  -0.01  -0.00    -0.01   0.01   0.00
  12   1     0.03   0.05   0.01     0.21   0.41   0.12    -0.04  -0.08  -0.02
  13   6    -0.00  -0.00   0.00    -0.00  -0.00  -0.00    -0.01  -0.00   0.00
  14   6    -0.06  -0.09   0.06    -0.01  -0.01   0.01    -0.06  -0.09   0.06
  15   6     0.00  -0.00   0.00    -0.01   0.01  -0.01    -0.05   0.07  -0.05
  16   6    -0.10   0.13  -0.10     0.01  -0.02   0.01    -0.03   0.03  -0.03
  17   1     0.23   0.34  -0.24     0.02   0.03  -0.02     0.21   0.31  -0.22
  18   6    -0.02  -0.03   0.02     0.01   0.01  -0.01     0.07   0.10  -0.07
  19   1    -0.01   0.01  -0.01     0.03  -0.03   0.03     0.16  -0.22   0.17
  20   6     0.11   0.00  -0.00    -0.04  -0.00   0.00    -0.16  -0.00  -0.00
  21   1     0.37  -0.49   0.36    -0.05   0.07  -0.05     0.09  -0.12   0.09
  22   1     0.08   0.11  -0.08    -0.04  -0.05   0.04    -0.25  -0.37   0.27
  23   1    -0.40  -0.01   0.00     0.14   0.00   0.00     0.56   0.01   0.00
                     58                     59                     60
                        a                      a                      a 
 Frequencies --  3083.6454              3085.2133              3094.1025
 Red. masses --     1.7954                 1.8699                 1.8615
 Frc consts  --     0.0000                 0.0000                 0.0000
 IR Inten    --    37.8845               194.9422               146.4604
 Raman Activ --     0.0000                 0.0000                 0.0000
 Depolar     --     0.0000                 0.0000                 0.0000
 Atom AN      X      Y      Z        X      Y      Z        X      Y      Z
   1   6    -0.05  -0.09  -0.03     0.00   0.00   0.00     0.09   0.16   0.05
   2   6     0.21   0.01   0.01     0.02   0.00   0.00     0.09   0.00   0.00
   3   6    -0.03   0.05   0.01    -0.00   0.01   0.00    -0.08   0.12   0.03
   4   6    -0.00   0.00   0.00    -0.00   0.00   0.00     0.00   0.00   0.00
   5   6     0.00   0.00  -0.00     0.00  -0.00   0.00    -0.00  -0.00  -0.00
   6   6     0.05  -0.08  -0.02     0.01  -0.02  -0.01    -0.06   0.08   0.02
   7   1    -0.19   0.28   0.08    -0.04   0.06   0.02     0.18  -0.26  -0.07
   8   8     0.00  -0.00  -0.00     0.00  -0.00  -0.00     0.00   0.00   0.00
   9   1    -0.00   0.00  -0.00    -0.00   0.00   0.00    -0.00  -0.00  -0.00
  10   1    -0.77  -0.04  -0.02    -0.08  -0.00  -0.00    -0.31  -0.01  -0.01
  11   1     0.13  -0.19  -0.06     0.01  -0.02  -0.01     0.28  -0.43  -0.12
  12   1     0.17   0.33   0.10    -0.00  -0.00  -0.00    -0.29  -0.56  -0.16
  13   6    -0.00  -0.00   0.00    -0.00   0.00  -0.00    -0.00   0.00   0.00
  14   6     0.01   0.01  -0.01    -0.09  -0.13   0.09    -0.00  -0.01   0.00
  15   6    -0.00   0.00  -0.00     0.03  -0.03   0.03    -0.00   0.00  -0.00
  16   6    -0.01   0.01  -0.01     0.06  -0.08   0.06     0.01  -0.01   0.01
  17   1    -0.02  -0.03   0.02     0.31   0.45  -0.32     0.01   0.02  -0.01
  18   6     0.01   0.01  -0.01    -0.07  -0.11   0.08     0.01   0.01  -0.01
  19   1     0.01  -0.02   0.01    -0.08   0.11  -0.09     0.01  -0.01   0.01
  20   6    -0.00  -0.00   0.00    -0.06   0.00  -0.00     0.03   0.00   0.00
  21   1     0.03  -0.05   0.03    -0.21   0.28  -0.21    -0.03   0.04  -0.03
  22   1    -0.03  -0.04   0.03     0.25   0.37  -0.27    -0.03  -0.05   0.03
  23   1     0.01   0.00  -0.00     0.21   0.00   0.00    -0.09  -0.00  -0.00
                     61                     62                     63
                        a                      a                      a 
 Frequencies --  3096.0381              3104.1937              3431.1969
 Red. masses --     1.9203                 1.8968                 1.8622
 Frc consts  --     0.0000                 0.0000                 0.0000
 IR Inten    --   111.5580                87.4420               183.2850
 Raman Activ --     0.0000                 0.0000                 0.0000
 Depolar     --     0.0000                 0.0000                 0.0000
 Atom AN      X      Y      Z        X      Y      Z        X      Y      Z
   1   6    -0.01  -0.02  -0.01    -0.04  -0.09  -0.03     0.00  -0.00  -0.00
   2   6    -0.00   0.00   0.00    -0.14  -0.01  -0.00    -0.00   0.00   0.00
   3   6     0.02  -0.02  -0.01    -0.12   0.18   0.05     0.00   0.00   0.00
   4   6     0.00  -0.00  -0.00     0.00   0.01   0.00    -0.01  -0.01  -0.00
   5   6     0.00   0.00   0.00     0.00  -0.00  -0.00    -0.00   0.00   0.00
   6   6     0.01  -0.01  -0.00     0.02  -0.03  -0.01    -0.00  -0.00  -0.00
   7   1    -0.03   0.05   0.01    -0.08   0.11   0.03    -0.00   0.00   0.00
   8   8    -0.00  -0.00  -0.00     0.00  -0.00  -0.00    -0.24   0.02  -0.02
   9   1     0.00   0.00   0.00    -0.01   0.00  -0.00     0.96  -0.06   0.10
  10   1     0.01   0.00   0.00     0.46   0.02   0.01     0.00  -0.00  -0.00
  11   1    -0.06   0.09   0.02     0.41  -0.62  -0.18     0.01  -0.01  -0.00
  12   1     0.03   0.06   0.02     0.15   0.28   0.08     0.00   0.00   0.00
  13   6    -0.01  -0.00   0.00     0.00   0.00   0.00     0.00   0.00  -0.00
  14   6    -0.05  -0.07   0.05    -0.00  -0.00   0.00    -0.00   0.00  -0.00
  15   6    -0.03   0.04  -0.03    -0.00   0.00  -0.00     0.00  -0.00  -0.00
  16   6     0.07  -0.09   0.07     0.00  -0.00   0.00     0.00   0.00  -0.00
  17   1     0.15   0.22  -0.16     0.01   0.01  -0.01    -0.00  -0.00   0.00
  18   6     0.06   0.10  -0.07     0.00   0.00  -0.00    -0.00  -0.00  -0.00
  19   1     0.09  -0.12   0.09     0.00  -0.01   0.00     0.00   0.00   0.00
  20   6     0.18   0.00  -0.00     0.01   0.00  -0.00    -0.00  -0.00   0.00
  21   1    -0.23   0.31  -0.23    -0.01   0.02  -0.01     0.00  -0.00   0.00
  22   1    -0.21  -0.32   0.23    -0.01  -0.02   0.01     0.00   0.00  -0.00
  23   1    -0.61  -0.01  -0.00    -0.02  -0.00  -0.00     0.00   0.00   0.00
