      -----------------------------------------------------------      
     |                   =====================                   |     
     |                           x T B                           |     
     |                   =====================                   |     
     |                         S. Grimme                         |     
     |          Mulliken Center for Theoretical Chemistry        |     
     |                    University of Bonn                     |     
      -----------------------------------------------------------      

   * xtb version 6.4.1 (afa7bdf) compiled by 'ehlert@majestix' on 2021-06-10

   xtb is free software: you can redistribute it and/or modify it under
   the terms of the GNU Lesser General Public License as published by
   the Free Software Foundation, either version 3 of the License, or
   (at your option) any later version.
   
   xtb is distributed in the hope that it will be useful,
   but WITHOUT ANY WARRANTY; without even the implied warranty of
   MERCHANTABILITY or FITNESS FOR A PARTICULAR PURPOSE.  See the
   GNU Lesser General Public License for more details.
   
   Cite this work as:
   * C. Bannwarth, E. Caldeweyher, S. Ehlert, A. Hansen, P. Pracht,
     J. Seibert, S. Spicher, S. Grimme, WIREs Comput. Mol. Sci., 2020, 11,
     e01493. DOI: 10.1002/wcms.1493
   
   for GFN2-xTB:
   * C. Bannwarth, S. Ehlert and S. Grimme., J. Chem. Theory Comput., 2019,
     15, 1652-1671. DOI: 10.1021/acs.jctc.8b01176
   for GFN1-xTB:
   * S. Grimme, C. Bannwarth, P. Shushkov, J. Chem. Theory Comput., 2017,
     13, 1989-2009. DOI: 10.1021/acs.jctc.7b00118
   for GFN0-xTB:
   * P. Pracht, E. Caldeweyher, S. Ehlert, S. Grimme, ChemRxiv, 2019, preprint.
     DOI: 10.26434/chemrxiv.8326202.v1
   for GFN-FF:
   * S. Spicher and S. Grimme, Angew. Chem. Int. Ed., 2020, 59, 15665-15673.
     DOI: 10.1002/anie.202004239
   
   for DFT-D4:
   * E. Caldeweyher, C. Bannwarth and S. Grimme, J. Chem. Phys., 2017,
     147, 034112. DOI: 10.1063/1.4993215
   * E. Caldeweyher, S. Ehlert, A. Hansen, H. Neugebauer, S. Spicher,
     C. Bannwarth and S. Grimme, J. Chem. Phys., 2019, 150, 154122.
     DOI: 10.1063/1.5090222
   * E. Caldeweyher, J.-M. Mewes, S. Ehlert and S. Grimme, Phys. Chem. Chem. Phys.
     2020, 22, 8499-8512. DOI: 10.1039/D0CP00502A
   
   for sTDA-xTB:
   * S. Grimme and C. Bannwarth, J. Chem. Phys., 2016, 145, 054103.
     DOI: 10.1063/1.4959605
   
   in the mass-spec context:
   * V. Asgeirsson, C. Bauer and S. Grimme, Chem. Sci., 2017, 8, 4879.
     DOI: 10.1039/c7sc00601b
   * J. Koopman and S. Grimme, ACS Omega 2019, 4, 12, 15120-15133.
     DOI: 10.1021/acsomega.9b02011
   
   for metadynamics refer to:
   * S. Grimme, J. Chem. Theory Comput., 2019, 155, 2847-2862
     DOI: 10.1021/acs.jctc.9b00143
   
   for SPH calculations refer to:
   * S. Spicher and S. Grimme, J. Chem. Theory Comput., 2021, 17, 1701-1714
     DOI: 10.1021/acs.jctc.0c01306
   
   with help from (in alphabetical order)
   P. Atkinson, C. Bannwarth, F. Bohle, G. Brandenburg, E. Caldeweyher
   M. Checinski, S. Dohm, S. Ehlert, S. Ehrlich, I. Gerasimov, J. Koopman
   C. Lavigne, S. Lehtola, F. März, M. Müller, F. Musil, H. Neugebauer
   J. Pisarek, C. Plett, P. Pracht, J. Seibert, P. Shushkov, S. Spicher
   M. Stahn, M. Steiner, T. Strunk, J. Stückrath, T. Rose, and J. Unsleber
   
 * started run on 2021/11/15 at 09:36:24.422     

           -------------------------------------------------
          |                Calculation Setup                |
           -------------------------------------------------

          program call               : xtb 41_3-nitro-L-tyrosine.xyz --gfn2 --chrg 0 --uhf 0 --alpb water --ohess -P 1
          coordinate file            : 41_3-nitro-L-tyrosine.xyz
          omp threads                :                     1
          number of atoms            :                    26
          number of electrons        :                    86
          charge                     :                     0
          spin                       :                   0.0
          first test random number   :      0.76423896940439

   ID    Z sym.   atoms
    1    8 O      1-3, 25, 26
    2    7 N      4, 24
    3    6 C      5-13
    4    1 H      14-23

           -------------------------------------------------
          |                 G F N 2 - x T B                 |
           -------------------------------------------------

        Reference                      10.1021/acs.jctc.8b01176
      * Hamiltonian:
        H0-scaling (s, p, d)           1.850000    2.230000    2.230000
        zeta-weighting                 0.500000
      * Dispersion:
        s8                             2.700000
        a1                             0.520000
        a2                             5.000000
        s9                             5.000000
      * Repulsion:
        kExp                           1.500000    1.000000
        rExp                           1.000000
      * Coulomb:
        alpha                          2.000000
        third order                    shell-resolved
        anisotropic                    true
        a3                             3.000000
        a5                             4.000000
        cn-shift                       1.200000
        cn-exp                         4.000000
        max-rad                        5.000000

      * Solvation model:               ALPB
        Solvent                        water
        Parameter file                 internal GFN2-xTB/ALPB
        Dielectric constant                8.0200E+01
        Reference state                gsolv [1 M gas/solution]
        Free energy shift                  1.0808E-03 Eh       6.7819E-01 kcal/mol
        Temperature                        2.9815E+02 K
        Density                            1.0000E+00 kg/L
        Solvent mass                       1.8000E+01 g/mol
        Interaction kernel             P16
        Born radius scaling (c1)           1.4744E+00
        Born radii integrator          GBOBC
        Born offset                        0.0000E+00 a0       0.0000E+00 AA
        H-bond correction              true
        Ion screening                  false
        Surface tension                    1.0000E-05 Eh       1.5569E+01 dyn/cm
        Grid points                               230 per atom

          ...................................................
          :                      SETUP                      :
          :.................................................:
          :  # basis functions                  74          :
          :  # atomic orbitals                  74          :
          :  # shells                           42          :
          :  # electrons                        86          :
          :  max. iterations                   250          :
          :  Hamiltonian                  GFN2-xTB          :
          :  restarted?                      false          :
          :  GBSA solvation                   true          :
          :  PC potential                    false          :
          :  electronic temp.          300.0000000     K    :
          :  accuracy                    1.0000000          :
          :  -> integral cutoff          0.2500000E+02      :
          :  -> integral neglect         0.1000000E-07      :
          :  -> SCF convergence          0.1000000E-05 Eh   :
          :  -> wf. convergence          0.1000000E-03 e    :
          :  Broyden damping             0.4000000          :
          ...................................................

 iter      E             dE          RMSdq      gap      omega  full diag
   1    -50.7795795 -0.507796E+02  0.593E+00    2.79       0.0  T
   2    -50.9856170 -0.206038E+00  0.273E+00    2.14       1.0  T
   3    -50.9917098 -0.609275E-02  0.138E+00    1.69       1.0  T
   4    -50.9912870  0.422752E-03  0.518E-01    1.27       1.0  T
   5    -50.9950213 -0.373429E-02  0.122E-01    1.21       1.0  T
   6    -50.9950753 -0.540083E-04  0.649E-02    1.24       1.0  T
   7    -50.9950913 -0.159560E-04  0.146E-02    1.28       1.3  T
   8    -50.9950919 -0.647747E-06  0.757E-03    1.28       2.6  T
   9    -50.9950921 -0.167494E-06  0.335E-03    1.28       5.9  T
  10    -50.9950921 -0.660607E-07  0.114E-03    1.28      17.1  T
  11    -50.9950922 -0.672478E-08  0.546E-04    1.28      35.9  T
  12    -50.9950922 -0.782656E-09  0.251E-04    1.28      78.0  T

   *** convergence criteria satisfied after 12 iterations ***

         #    Occupation            Energy/Eh            Energy/eV
      -------------------------------------------------------------
         1        2.0000           -0.7828461             -21.3023
       ...           ...                  ...                  ...
        37        2.0000           -0.4586714             -12.4811
        38        2.0000           -0.4438874             -12.0788
        39        2.0000           -0.4432298             -12.0609
        40        2.0000           -0.4152340             -11.2991
        41        2.0000           -0.4116836             -11.2025
        42        2.0000           -0.4046660             -11.0115
        43        2.0000           -0.3847475             -10.4695 (HOMO)
        44                         -0.3378707              -9.1939 (LUMO)
        45                         -0.2493871              -6.7862
        46                         -0.2428296              -6.6077
        47                         -0.1952347              -5.3126
        48                         -0.1246229              -3.3912
       ...                                ...                  ...
        74                          0.6084589              16.5570
      -------------------------------------------------------------
                  HL-Gap            0.0468769 Eh            1.2756 eV
             Fermi-level           -0.3613091 Eh           -9.8317 eV

 SCC (total)                   0 d,  0 h,  0 min,  0.027 sec
 SCC setup                      ...        0 min,  0.001 sec (  2.616%)
 Dispersion                     ...        0 min,  0.000 sec (  0.923%)
 classical contributions        ...        0 min,  0.000 sec (  0.124%)
 integral evaluation            ...        0 min,  0.004 sec ( 14.675%)
 iterations                     ...        0 min,  0.013 sec ( 48.916%)
 molecular gradient             ...        0 min,  0.009 sec ( 31.759%)
 printout                       ...        0 min,  0.000 sec (  0.886%)

         :::::::::::::::::::::::::::::::::::::::::::::::::::::
         ::                     SUMMARY                     ::
         :::::::::::::::::::::::::::::::::::::::::::::::::::::
         :: total energy             -50.487025955476 Eh    ::
         :: total w/o Gsasa/hb       -50.479995611569 Eh    ::
         :: gradient norm              0.053835785034 Eh/a0 ::
         :: HOMO-LUMO gap              1.275584300706 eV    ::
         ::.................................................::
         :: SCC energy               -50.995092154812 Eh    ::
         :: -> isotropic ES            0.260765333101 Eh    ::
         :: -> anisotropic ES         -0.011946426680 Eh    ::
         :: -> anisotropic XC          0.007300547996 Eh    ::
         :: -> dispersion             -0.023766212273 Eh    ::
         :: -> Gsolv                  -0.086684794153 Eh    ::
         ::    -> Gelec               -0.079654450246 Eh    ::
         ::    -> Gsasa                0.007736784571 Eh    ::
         ::    -> Ghb                 -0.015847888176 Eh    ::
         ::    -> Gshift               0.001080759698 Eh    ::
         :: repulsion energy           0.507975314606 Eh    ::
         :: add. restraining           0.000000000000 Eh    ::
         :: total charge              -0.000000000000 e     ::
         :::::::::::::::::::::::::::::::::::::::::::::::::::::

      ----------------------------------------------------------- 
     |                   =====================                   |
     |                        A N C O P T                        |
     |                   =====================                   |
     |               Approximate Normal Coordinate               |
     |                Rational Function Optimizer                |
      ----------------------------------------------------------- 

          ...................................................
          :                      SETUP                      :
          :.................................................:
          :   optimization level            normal          :
          :   max. optcycles                   200          :
          :   ANC micro-cycles                  20          :
          :   degrees of freedom                72          :
          :.................................................:
          :   RF solver                   davidson          :
          :   write xtbopt.log                true          :
          :   linear?                        false          :
          :   energy convergence         0.5000000E-05 Eh   :
          :   grad. convergence          0.1000000E-02 Eh/α :
          :   maximium RF displ.         1.0000000          :
          :   Hlow (freq-cutoff)         0.1000000E-01      :
          :   Hmax (freq-cutoff)         5.0000000          :
          :   S6 in model hess.         20.0000000          :
          ...................................................

generating ANC from model Hessian ...
Using Lindh-Hessian (1995)
 Shifting diagonal of input Hessian by   9.044147916295844E-003
 Lowest  eigenvalues of input Hessian
    0.000000    0.000000    0.000000    0.000000    0.000000    0.000000
    0.010000    0.010323    0.010722    0.014536    0.016798    0.019709
    0.021071    0.024030    0.024050    0.025052    0.027063    0.028805
 Highest eigenvalues
    1.860563    1.886110    2.061965    2.150382    2.313743    2.471324
 

........................................................................
.............................. CYCLE    1 ..............................
........................................................................
   1    -50.9950922 -0.509951E+02  0.845E-05    1.28       0.0  T
   2    -50.9950922 -0.273133E-10  0.546E-05    1.28     359.4  T
   3    -50.9950922 -0.576961E-11  0.356E-05    1.28     550.4  T
     SCC iter.                  ...        0 min,  0.005 sec
     gradient                   ...        0 min,  0.007 sec
 * total energy  :   -50.4870260 Eh     change       -0.5715250E-09 Eh
   gradient norm :     0.0538339 Eh/α   predicted     0.0000000E+00 (-100.00%)
   displ. norm   :     0.1755612 α      lambda       -0.4223907E-02
   maximum displ.:     0.0608444 α      in ANC's #20, #14, #6, ...

........................................................................
.............................. CYCLE    2 ..............................
........................................................................
   1    -51.0105255 -0.510105E+02  0.158E-01    1.32       0.0  T
   2    -51.0106158 -0.903123E-04  0.865E-02    1.31       1.0  T
   3    -51.0106175 -0.176752E-05  0.432E-02    1.32       1.0  T
   4    -51.0106249 -0.730689E-05  0.101E-02    1.32       1.9  T
   5    -51.0106262 -0.134153E-05  0.366E-03    1.32       5.4  T
   6    -51.0106263 -0.110749E-06  0.203E-03    1.32       9.7  T
   7    -51.0106263 -0.771416E-08  0.682E-04    1.32      28.8  T
   8    -51.0106263 -0.366469E-08  0.326E-04    1.32      60.2  T
     SCC iter.                  ...        0 min,  0.008 sec
     gradient                   ...        0 min,  0.007 sec
 * total energy  :   -50.4899820 Eh     change       -0.2956073E-02 Eh
   gradient norm :     0.0267398 Eh/α   predicted    -0.2177228E-02 ( -26.35%)
   displ. norm   :     0.1577166 α      lambda       -0.1764191E-02
   maximum displ.:     0.0622484 α      in ANC's #14, #6, #15, ...

........................................................................
.............................. CYCLE    3 ..............................
........................................................................
   1    -51.0195998 -0.510196E+02  0.112E-01    1.34       0.0  T
   2    -51.0196785 -0.787126E-04  0.577E-02    1.35       1.0  T
   3    -51.0196854 -0.687379E-05  0.340E-02    1.36       1.0  T
   4    -51.0196892 -0.379011E-05  0.975E-03    1.37       2.0  T
   5    -51.0196901 -0.916144E-06  0.309E-03    1.37       6.4  T
   6    -51.0196901 -0.785306E-07  0.159E-03    1.37      12.3  T
   7    -51.0196902 -0.431810E-08  0.761E-04    1.37      25.8  T
   8    -51.0196902 -0.468463E-08  0.276E-04    1.37      71.1  T
     SCC iter.                  ...        0 min,  0.008 sec
     gradient                   ...        0 min,  0.007 sec
 * total energy  :   -50.4909646 Eh     change       -0.9825882E-03 Eh
   gradient norm :     0.0108333 Eh/α   predicted    -0.9041930E-03 (  -7.98%)
   displ. norm   :     0.0999858 α      lambda       -0.4096446E-03
   maximum displ.:     0.0495987 α      in ANC's #3, #7, #23, ...

........................................................................
.............................. CYCLE    4 ..............................
........................................................................
   1    -51.0196359 -0.510196E+02  0.621E-02    1.36       0.0  T
   2    -51.0196479 -0.120168E-04  0.350E-02    1.36       1.0  T
   3    -51.0196477  0.215760E-06  0.176E-02    1.37       1.1  T
   4    -51.0196498 -0.217382E-05  0.406E-03    1.38       4.8  T
   5    -51.0196500 -0.189721E-06  0.135E-03    1.38      14.5  T
   6    -51.0196500 -0.107129E-07  0.687E-04    1.38      28.5  T
   7    -51.0196500 -0.131102E-08  0.325E-04    1.38      60.4  T
     SCC iter.                  ...        0 min,  0.007 sec
     gradient                   ...        0 min,  0.011 sec
 * total energy  :   -50.4910935 Eh     change       -0.1288327E-03 Eh
   gradient norm :     0.0099257 Eh/α   predicted    -0.2068888E-03 (  60.59%)
   displ. norm   :     0.0767181 α      lambda       -0.3089453E-03
   maximum displ.:     0.0396876 α      in ANC's #3, #15, #6, ...

........................................................................
.............................. CYCLE    5 ..............................
........................................................................
   1    -51.0177620 -0.510178E+02  0.409E-02    1.36       0.0  T
   2    -51.0177676 -0.562919E-05  0.236E-02    1.37       1.0  T
   3    -51.0177676 -0.601979E-08  0.105E-02    1.38       1.9  T
   4    -51.0177682 -0.544783E-06  0.317E-03    1.38       6.2  T
   5    -51.0177683 -0.123319E-06  0.108E-03    1.38      18.2  T
   6    -51.0177683 -0.686644E-08  0.567E-04    1.38      34.6  T
   7    -51.0177683 -0.469164E-09  0.233E-04    1.38      84.1  T
     SCC iter.                  ...        0 min,  0.010 sec
     gradient                   ...        0 min,  0.009 sec
 * total energy  :   -50.4912779 Eh     change       -0.1844509E-03 Eh
   gradient norm :     0.0050732 Eh/α   predicted    -0.1554062E-03 ( -15.75%)
   displ. norm   :     0.0619615 α      lambda       -0.7207038E-04
   maximum displ.:     0.0394666 α      in ANC's #3, #7, #15, ...

........................................................................
.............................. CYCLE    6 ..............................
........................................................................
   1    -51.0168552 -0.510169E+02  0.274E-02    1.37       0.0  T
   2    -51.0168563 -0.118175E-05  0.154E-02    1.38       1.3  T
   3    -51.0168563  0.995136E-08  0.460E-03    1.38       4.3  T
   4    -51.0168564 -0.955411E-07  0.136E-03    1.38      14.4  T
   5    -51.0168565 -0.289678E-07  0.504E-04    1.38      38.9  T
   6    -51.0168565 -0.677083E-09  0.268E-04    1.38      73.1  T
     SCC iter.                  ...        0 min,  0.008 sec
     gradient                   ...        0 min,  0.007 sec
 * total energy  :   -50.4913298 Eh     change       -0.5187507E-04 Eh
   gradient norm :     0.0029326 Eh/α   predicted    -0.3620104E-04 ( -30.21%)
   displ. norm   :     0.0985893 α      lambda       -0.6291178E-04
   maximum displ.:     0.0619076 α      in ANC's #3, #7, #6, ...

........................................................................
.............................. CYCLE    7 ..............................
........................................................................
   1    -51.0164468 -0.510164E+02  0.384E-02    1.38       0.0  T
   2    -51.0164483 -0.144804E-05  0.219E-02    1.39       1.0  T
   3    -51.0164481  0.155828E-06  0.572E-03    1.39       3.4  T
   4    -51.0164484 -0.318982E-06  0.164E-03    1.39      12.0  T
   5    -51.0164485 -0.374232E-07  0.567E-04    1.39      34.6  T
   6    -51.0164485 -0.588969E-09  0.291E-04    1.39      67.3  T
     SCC iter.                  ...        0 min,  0.006 sec
     gradient                   ...        0 min,  0.008 sec
 * total energy  :   -50.4913716 Eh     change       -0.4181620E-04 Eh
   gradient norm :     0.0031899 Eh/α   predicted    -0.3178384E-04 ( -23.99%)
   displ. norm   :     0.1151338 α      lambda       -0.5616221E-04
   maximum displ.:     0.0683921 α      in ANC's #3, #7, #6, ...

........................................................................
.............................. CYCLE    8 ..............................
........................................................................
   1    -51.0164770 -0.510165E+02  0.431E-02    1.40       0.0  T
   2    -51.0164783 -0.127524E-05  0.248E-02    1.40       1.0  T
   3    -51.0164780  0.309683E-06  0.599E-03    1.40       3.3  T
   4    -51.0164785 -0.511494E-06  0.150E-03    1.40      13.1  T
   5    -51.0164785 -0.268685E-07  0.564E-04    1.40      34.8  T
   6    -51.0164785 -0.591967E-09  0.288E-04    1.40      68.0  T
     SCC iter.                  ...        0 min,  0.007 sec
     gradient                   ...        0 min,  0.011 sec
 * total energy  :   -50.4914014 Eh     change       -0.2977914E-04 Eh
   gradient norm :     0.0040789 Eh/α   predicted    -0.2845658E-04 (  -4.44%)
   displ. norm   :     0.0860341 α      lambda       -0.4339089E-04
   maximum displ.:     0.0485139 α      in ANC's #3, #6, #7, ...

........................................................................
.............................. CYCLE    9 ..............................
........................................................................
   1    -51.0168818 -0.510169E+02  0.306E-02    1.41       0.0  T
   2    -51.0168823 -0.473489E-06  0.178E-02    1.41       1.1  T
   3    -51.0168822  0.812200E-07  0.327E-03    1.40       6.0  T
   4    -51.0168824 -0.169256E-06  0.104E-03    1.40      18.8  T
   5    -51.0168824 -0.109832E-07  0.473E-04    1.41      41.5  T
   6    -51.0168824 -0.387047E-09  0.198E-04    1.41      98.8  T
     SCC iter.                  ...        0 min,  0.008 sec
     gradient                   ...        0 min,  0.007 sec
 * total energy  :   -50.4914322 Eh     change       -0.3087205E-04 Eh
   gradient norm :     0.0033602 Eh/α   predicted    -0.2187167E-04 ( -29.15%)
   displ. norm   :     0.0864007 α      lambda       -0.3741212E-04
   maximum displ.:     0.0487749 α      in ANC's #6, #3, #1, ...

........................................................................
.............................. CYCLE   10 ..............................
........................................................................
   1    -51.0174063 -0.510174E+02  0.300E-02    1.41       0.0  T
   2    -51.0174068 -0.481365E-06  0.174E-02    1.41       1.1  T
   3    -51.0174069 -0.461046E-07  0.222E-03    1.41       8.8  T
   4    -51.0174069 -0.377710E-07  0.104E-03    1.41      18.8  T
   5    -51.0174069 -0.102670E-07  0.520E-04    1.41      37.7  T
   6    -51.0174069 -0.532296E-09  0.234E-04    1.41      84.0  T
     SCC iter.                  ...        0 min,  0.009 sec
     gradient                   ...        0 min,  0.009 sec
 * total energy  :   -50.4914581 Eh     change       -0.2584804E-04 Eh
   gradient norm :     0.0023965 Eh/α   predicted    -0.1885014E-04 ( -27.07%)
   displ. norm   :     0.0752865 α      lambda       -0.1939473E-04
   maximum displ.:     0.0425985 α      in ANC's #6, #3, #1, ...

........................................................................
.............................. CYCLE   11 ..............................
........................................................................
   1    -51.0174041 -0.510174E+02  0.265E-02    1.41       0.0  T
   2    -51.0174044 -0.290570E-06  0.154E-02    1.41       1.3  T
   3    -51.0174043  0.315596E-07  0.260E-03    1.41       7.5  T
   4    -51.0174044 -0.105164E-06  0.913E-04    1.41      21.5  T
   5    -51.0174045 -0.633695E-08  0.428E-04    1.41      45.8  T
     SCC iter.                  ...        0 min,  0.005 sec
     gradient                   ...        0 min,  0.008 sec
 * total energy  :   -50.4914717 Eh     change       -0.1362912E-04 Eh
   gradient norm :     0.0021412 Eh/α   predicted    -0.9753846E-05 ( -28.43%)
   displ. norm   :     0.0544418 α      lambda       -0.1142986E-04
   maximum displ.:     0.0287131 α      in ANC's #6, #1, #3, ...

........................................................................
.............................. CYCLE   12 ..............................
........................................................................
   1    -51.0174208 -0.510174E+02  0.186E-02    1.40       0.0  T
   2    -51.0174211 -0.261773E-06  0.107E-02    1.40       1.8  T
   3    -51.0174210  0.435973E-07  0.269E-03    1.40       7.3  T
   4    -51.0174211 -0.921522E-07  0.721E-04    1.40      27.2  T
   5    -51.0174211 -0.441858E-08  0.346E-04    1.40      56.6  T
     SCC iter.                  ...        0 min,  0.005 sec
     gradient                   ...        0 min,  0.007 sec
 * total energy  :   -50.4914796 Eh     change       -0.7910129E-05 Eh
   gradient norm :     0.0014518 Eh/α   predicted    -0.5733393E-05 ( -27.52%)
   displ. norm   :     0.0605559 α      lambda       -0.5509576E-05
   maximum displ.:     0.0352984 α      in ANC's #1, #6, #3, ...

........................................................................
.............................. CYCLE   13 ..............................
........................................................................
   1    -51.0172515 -0.510173E+02  0.214E-02    1.39       0.0  T
   2    -51.0172518 -0.328766E-06  0.124E-02    1.39       1.6  T
   3    -51.0172518  0.131381E-07  0.230E-03    1.39       8.5  T
   4    -51.0172519 -0.534882E-07  0.793E-04    1.39      24.7  T
   5    -51.0172519 -0.679524E-08  0.362E-04    1.39      54.2  T
     SCC iter.                  ...        0 min,  0.005 sec
     gradient                   ...        0 min,  0.007 sec
 * total energy  :   -50.4914839 Eh     change       -0.4263813E-05 Eh
   gradient norm :     0.0008067 Eh/α   predicted    -0.2761170E-05 ( -35.24%)
   displ. norm   :     0.0616651 α      lambda        0.5739924E-05
   maximum displ.:     0.0360532 α      in ANC's #1, #6, #3, ...

   *** GEOMETRY OPTIMIZATION CONVERGED AFTER 13 ITERATIONS ***

------------------------------------------------------------------------
 total energy gain   :        -0.0044579 Eh       -2.7974 kcal/mol
 total RMSD          :         0.1747744 a0        0.0925 Å
 total power (kW/mol):        -0.9003321 (step)  -43.8312 (real)
------------------------------------------------------------------------

 ANCopt (total)                0 d,  0 h,  0 min,  0.267 sec
 optimizer setup                ...        0 min,  0.000 sec (  0.068%)
 model hessian                  ...        0 min,  0.006 sec (  2.337%)
 ANC generation                 ...        0 min,  0.001 sec (  0.222%)
 coordinate transformation      ...        0 min,  0.000 sec (  0.055%)
 single point calculation       ...        0 min,  0.256 sec ( 95.699%)
 optimization log               ...        0 min,  0.003 sec (  1.010%)
 hessian update                 ...        0 min,  0.000 sec (  0.047%)
 rational function              ...        0 min,  0.001 sec (  0.295%)

================
 final structure:
================
26
 xtb: 6.4.1 (afa7bdf)
O        -3.92894003581847    1.64976963082009   -0.71055250445366
O         3.78438478752544   -1.37223212831335    0.20061734441903
O        -4.77555337746562    0.01496285570525    0.56939057613855
N        -2.64071206720998   -1.07591726479571    1.22580360601805
C        -1.64684353011744   -0.22282284926732   -0.90545433891341
C        -2.40826952191959    0.10854204758396    0.37582347388394
C        -0.19512852650322   -0.50192519621868   -0.63491520904795
C         0.67540686603477    0.52841565800734   -0.36458610858518
C         0.30484804678005   -1.81169555705122   -0.62348561808571
C         2.02737253245884    0.28632740655230   -0.07714444049167
C         1.62465422073111   -2.07132987292134   -0.34323616734858
C        -3.85780374591201    0.66697342235299    0.02627725952690
C         2.52810112641386   -1.03743040688140   -0.06127027116915
H        -1.74955380010160    0.64283621823315   -1.56270006589979
H        -2.11906358143866   -1.07184685058724   -1.40022651141197
H        -1.89055582318364    0.89656255008601    0.92366157873129
H         0.33929773750020    1.55441697459923   -0.37488366521868
H        -0.35028351604675   -2.63675001693897   -0.85625381650973
H         2.01116616806418   -3.07719948477145   -0.33629210221677
H        -3.71306861745659   -1.05375445989576    1.27839217499161
H        -2.23923509758192   -1.00474310178825    2.16192692406371
H         4.33661603601045   -0.57615447466004    0.37211448457161
H        -2.33400403425160   -1.94194872106935    0.77722952797306
N         2.85152833305281    1.39228472924352    0.18366979310815
O         2.37161072760536    2.51714576715101    0.17425232482053
O         4.05018469282990    1.19937912482547    0.41954475110571
 
 Bond Distances (Angstroems)
 ---------------------------
O1-C12=1.2304        O2-C13=1.3262        O2-H22=0.9839        O3-C12=1.2499        N4-C6=1.4763         N4-H20=1.0739        
N4-H21=1.0211        N4-H23=1.0224        C5-C6=1.5268         C5-C7=1.5029         C5-H14=1.0917        C5-H15=1.0902        
C6-N4=1.4763         C6-C5=1.5268         C6-C12=1.5922        C6-H16=1.0905        C7-C5=1.5029         C7-C8=1.3757         
C7-C9=1.4020         C8-C7=1.3757         C8-C10=1.4032        C8-H17=1.0797        C9-C7=1.4020         C9-C11=1.3740        
C9-H18=1.0789        C10-C8=1.4032        C10-C13=1.4154       C10-N24=1.4037       C11-C9=1.3740        C11-C13=1.4017       
C11-H19=1.0776       C12-O1=1.2304        C12-O3=1.2499        C12-C6=1.5922        C13-O2=1.3262        C13-C10=1.4154       
C13-C11=1.4017       H14-C5=1.0917        H15-C5=1.0902        H16-C6=1.0905        H17-C8=1.0797        H18-C9=1.0789        
H19-C11=1.0776       H20-N4=1.0739        H21-N4=1.0211        H22-O2=0.9839        H23-N4=1.0224        N24-C10=1.4037       
N24-O25=1.2230       N24-O26=1.2368       O25-N24=1.2230       O26-N24=1.2368       
 C  H  Rav=1.0848 sigma=0.0061  Rmin=1.0776  Rmax=1.0917     6
 C  C  Rav=1.4438 sigma=0.0730  Rmin=1.3740  Rmax=1.5922     9
 N  H  Rav=1.0391 sigma=0.0246  Rmin=1.0211  Rmax=1.0739     3
 N  C  Rav=1.4400 sigma=0.0363  Rmin=1.4037  Rmax=1.4763     2
 O  H  Rav=0.9839 sigma=0.0000  Rmin=0.9839  Rmax=0.9839     1
 O  C  Rav=1.2689 sigma=0.0414  Rmin=1.2304  Rmax=1.3262     3
 O  N  Rav=1.2299 sigma=0.0069  Rmin=1.2230  Rmax=1.2368     2
 
 selected bond angles (degree)
 --------------------
H22-O2-C13=111.21              H20-N4-C6= 99.72               H21-N4-C6=114.21               H21-N4-H20=110.26              
H23-N4-C6=112.32               H23-N4-H20=109.79              H23-N4-H21=110.08              C7-C5-C6=111.78                
H14-C5-C6=106.63               H14-C5-C7=110.27               H15-C5-C6=109.50               H15-C5-C7=110.82               
H15-C5-H14=107.67              C5-C6-N4=112.80                C12-C6-N4=105.33               C12-C6-C5=110.24               
H16-C6-N4=111.43               H16-C6-C5=109.98               H16-C6-C12=106.80              C8-C7-C5=120.50                
C9-C7-C5=121.30                C9-C7-C8=118.19                C10-C8-C7=121.38               H17-C8-C7=120.85               
H17-C8-C10=117.76              C11-C9-C7=121.38               H18-C9-C7=119.74               H18-C9-C11=118.87              
C13-C10-C8=120.30              N24-C10-C8=117.89              N24-C10-C13=121.81             
 
 selected dihedral angles (degree)
 ---------------------------------
C5-C6-N4-H20=238.25           C5-C6-N4-H21=120.72           C5-C6-N4-H23=354.46           C12-C6-N4-H20=358.54          
C12-C6-N4-H21=241.01          C12-C6-N4-H23=114.75          H16-C6-N4-H20=113.98          H16-C6-N4-H21=356.45          
H16-C6-N4-H23=230.19          N4-C6-C5-C7=286.58            N4-C6-C5-H14=166.00           N4-C6-C5-H15= 49.78           
C12-C6-C5-C7=169.15           C12-C6-C5-H14= 48.57          C12-C6-C5-H15=292.35          H16-C6-C5-C7= 51.64           
H16-C6-C5-H14=291.06          H16-C6-C5-H15=174.84          C8-C7-C5-C6=284.49            C8-C7-C5-H14= 42.92           
C8-C7-C5-H15=162.04           C9-C7-C5-C6=103.19            C9-C7-C5-H14=221.62           C9-C7-C5-H15=340.74           
C10-C8-C7-C5=178.42           C10-C8-C7-C9=359.68           H17-C8-C7-C5=357.92           H17-C8-C7-C9=179.18           
C11-C9-C7-C5=181.66           C11-C9-C7-C8=  0.39           H18-C9-C7-C5=  2.79           H18-C9-C7-C8=181.52           
C13-C10-C8-C7=  0.09          C13-C10-C8-H17=180.57         N24-C10-C8-C7=179.80          N24-C10-C8-H17=  0.28         
           -------------------------------------------------
          |                Final Singlepoint                |
           -------------------------------------------------

          ...................................................
          :                      SETUP                      :
          :.................................................:
          :  # basis functions                  74          :
          :  # atomic orbitals                  74          :
          :  # shells                           42          :
          :  # electrons                        86          :
          :  max. iterations                   250          :
          :  Hamiltonian                  GFN2-xTB          :
          :  restarted?                      false          :
          :  GBSA solvation                   true          :
          :  PC potential                    false          :
          :  electronic temp.          300.0000000     K    :
          :  accuracy                    1.0000000          :
          :  -> integral cutoff          0.2500000E+02      :
          :  -> integral neglect         0.1000000E-07      :
          :  -> SCF convergence          0.1000000E-05 Eh   :
          :  -> wf. convergence          0.1000000E-03 e    :
          :  Broyden damping             0.4000000          :
          ...................................................

 iter      E             dE          RMSdq      gap      omega  full diag
   1    -51.0172519 -0.510173E+02  0.170E-04    1.39       0.0  T
   2    -51.0172519 -0.760281E-10  0.112E-04    1.39     175.1  T
   3    -51.0172519 -0.882494E-11  0.684E-05    1.39     286.6  T

   *** convergence criteria satisfied after 3 iterations ***

         #    Occupation            Energy/Eh            Energy/eV
      -------------------------------------------------------------
         1        2.0000           -0.7821464             -21.2833
       ...           ...                  ...                  ...
        37        2.0000           -0.4563524             -12.4180
        38        2.0000           -0.4437343             -12.0746
        39        2.0000           -0.4424899             -12.0408
        40        2.0000           -0.4213496             -11.4655
        41        2.0000           -0.4112169             -11.1898
        42        2.0000           -0.4101693             -11.1613
        43        2.0000           -0.3844610             -10.4617 (HOMO)
        44                         -0.3333102              -9.0698 (LUMO)
        45                         -0.2467038              -6.7132
        46                         -0.2369542              -6.4479
        47                         -0.1910388              -5.1984
        48                         -0.1198764              -3.2620
       ...                                ...                  ...
        74                          0.6516613              17.7326
      -------------------------------------------------------------
                  HL-Gap            0.0511507 Eh            1.3919 eV
             Fermi-level           -0.3588856 Eh           -9.7658 eV

 SCC (total)                   0 d,  0 h,  0 min,  0.014 sec
 SCC setup                      ...        0 min,  0.001 sec (  3.592%)
 Dispersion                     ...        0 min,  0.000 sec (  0.576%)
 classical contributions        ...        0 min,  0.000 sec (  0.174%)
 integral evaluation            ...        0 min,  0.003 sec ( 21.411%)
 iterations                     ...        0 min,  0.003 sec ( 24.183%)
 molecular gradient             ...        0 min,  0.007 sec ( 48.309%)
 printout                       ...        0 min,  0.000 sec (  1.599%)

         :::::::::::::::::::::::::::::::::::::::::::::::::::::
         ::                     SUMMARY                     ::
         :::::::::::::::::::::::::::::::::::::::::::::::::::::
         :: total energy             -50.491483894782 Eh    ::
         :: total w/o Gsasa/hb       -50.484057145541 Eh    ::
         :: gradient norm              0.000806752648 Eh/a0 ::
         :: HOMO-LUMO gap              1.391882100055 eV    ::
         ::.................................................::
         :: SCC energy               -51.017251860463 Eh    ::
         :: -> isotropic ES            0.250289062179 Eh    ::
         :: -> anisotropic ES         -0.012243768919 Eh    ::
         :: -> anisotropic XC          0.005652872764 Eh    ::
         :: -> dispersion             -0.024010340448 Eh    ::
         :: -> Gsolv                  -0.081897962769 Eh    ::
         ::    -> Gelec               -0.074471213529 Eh    ::
         ::    -> Gsasa                0.007578176039 Eh    ::
         ::    -> Ghb                 -0.016085684977 Eh    ::
         ::    -> Gshift               0.001080759698 Eh    ::
         :: repulsion energy           0.525670042520 Eh    ::
         :: add. restraining           0.000000000000 Eh    ::
         :: total charge               0.000000000000 e     ::
         :::::::::::::::::::::::::::::::::::::::::::::::::::::

           ------------------------------------------------- 
          |                Numerical Hessian                |
           ------------------------------------------------- 
step length          :   0.00500
SCC accuracy         :   0.30000
Hessian scale factor :   1.00000
frozen atoms in %    :   0.00000    0
RMS gradient         :   0.00081
estimated CPU  time      0.05 min
estimated wall time      0.05 min

writing file <hessian>.

 projected vibrational frequencies (cm⁻¹)
eigval :       -0.00    -0.00     0.00     0.00     0.00     0.00
eigval :       31.32    37.79    52.45    71.74    74.57   127.99
eigval :      158.87   181.60   229.17   318.03   325.39   344.03
eigval :      363.69   386.97   399.17   411.47   421.08   482.96
eigval :      522.15   550.83   569.19   636.44   640.75   662.58
eigval :      675.17   722.00   741.29   778.19   819.26   830.23
eigval :      854.09   886.95   893.69   922.27   927.76   961.49
eigval :     1015.25  1049.29  1081.49  1117.73  1127.92  1147.90
eigval :     1154.23  1185.91  1211.18  1240.94  1245.79  1259.84
eigval :     1286.34  1315.18  1325.08  1330.81  1366.26  1392.42
eigval :     1395.03  1404.34  1463.60  1467.22  1525.21  1536.21
eigval :     1600.90  1738.12  2539.17  2996.19  3003.52  3008.55
eigval :     3098.26  3101.10  3122.40  3156.93  3306.93  3322.15
           -------------------------------------------------
          |                Property Printout                |
           -------------------------------------------------

    * Orbital Energies and Occupations

         #    Occupation            Energy/Eh            Energy/eV
      -------------------------------------------------------------
         1        2.0000           -0.7821467             -21.2833
       ...           ...                  ...                  ...
        31        2.0000           -0.4935739             -13.4308
        32        2.0000           -0.4861991             -13.2302
        33        2.0000           -0.4785565             -13.0222
        34        2.0000           -0.4741314             -12.9018
        35        2.0000           -0.4643356             -12.6352
        36        2.0000           -0.4629075             -12.5964
        37        2.0000           -0.4563523             -12.4180
        38        2.0000           -0.4437342             -12.0746
        39        2.0000           -0.4424898             -12.0408
        40        2.0000           -0.4213495             -11.4655
        41        2.0000           -0.4112168             -11.1898
        42        2.0000           -0.4101693             -11.1613
        43        2.0000           -0.3844609             -10.4617 (HOMO)
        44                         -0.3333101              -9.0698 (LUMO)
        45                         -0.2467038              -6.7132
        46                         -0.2369542              -6.4479
        47                         -0.1910389              -5.1984
        48                         -0.1198764              -3.2620
        49                         -0.0351334              -0.9560
        50                         -0.0046245              -0.1258
        51                          0.0402861               1.0962
        52                          0.0560093               1.5241
        53                          0.0729008               1.9837
        54                          0.0883922               2.4053
       ...                                ...                  ...
        74                          0.6516612              17.7326
      -------------------------------------------------------------
                  HL-Gap            0.0511508 Eh            1.3919 eV
             Fermi-level           -0.3588855 Eh           -9.7658 eV

     #   Z          covCN         q      C6AA      α(0)
     1   8 O        0.856    -0.603    26.196     6.862
     2   8 O        1.659    -0.387    20.600     6.127
     3   8 O        0.857    -0.600    26.131     6.854
     4   7 N        3.483    -0.189    25.086     7.439
     5   6 C        3.809    -0.082    22.049     6.684
     6   6 C        3.776    -0.014    20.860     6.507
     7   6 C        2.965     0.020    27.565     8.612
     8   6 C        2.925    -0.032    28.797     8.800
     9   6 C        2.922    -0.028    28.689     8.784
    10   6 C        2.908    -0.027    28.670     8.780
    11   6 C        2.916    -0.057    29.412     8.893
    12   6 C        2.681     0.367    20.776     7.459
    13   6 C        2.838     0.178    24.173     8.057
    14   1 H        0.924     0.080     1.975     2.198
    15   1 H        0.924     0.082     1.964     2.191
    16   1 H        0.924     0.084     1.939     2.178
    17   1 H        0.926     0.081     1.964     2.191
    18   1 H        0.926     0.098     1.800     2.098
    19   1 H        0.926     0.100     1.787     2.090
    20   1 H        0.854     0.314     0.674     1.286
    21   1 H        0.860     0.305     0.700     1.310
    22   1 H        0.802     0.389     0.506     1.118
    23   1 H        0.859     0.295     0.727     1.336
    24   7 N        2.762     0.555    13.429     5.443
    25   8 O        0.930    -0.454    22.751     6.397
    26   8 O        0.929    -0.475    23.201     6.460

 Mol. C6AA /au·bohr⁶  :       8052.723999
 Mol. C8AA /au·bohr⁸  :     187901.046225
 Mol. α(0) /au        :        136.154054


Wiberg/Mayer (AO) data.
largest (>0.10) Wiberg bond orders for each atom

 ---------------------------------------------------------------------------
     #   Z sym  total        # sym  WBO       # sym  WBO       # sym  WBO
 ---------------------------------------------------------------------------
     1   8 O    1.866 --    12 C    1.562     3 O    0.216
     2   8 O    2.202 --    13 C    1.182    22 H    0.787
     3   8 O    1.891 --    12 C    1.470     1 O    0.216
     4   7 N    3.627 --     6 C    0.972    21 H    0.896    23 H    0.895
                            20 H    0.793
     5   6 C    3.986 --     7 C    1.011     6 C    0.983    15 H    0.966
                            14 H    0.956
     6   6 C    3.935 --     5 C    0.983     4 N    0.972    16 H    0.956
                            12 C    0.868
     7   6 C    3.988 --     8 C    1.481     9 C    1.332     5 C    1.011
     8   6 C    3.983 --     7 C    1.481    10 C    1.315    17 H    0.958
                            11 C    0.109
     9   6 C    3.981 --    11 C    1.503     7 C    1.332    18 H    0.960
    10   6 C    3.937 --     8 C    1.315    13 C    1.260    24 N    1.055
    11   6 C    3.980 --     9 C    1.503    13 C    1.317    19 H    0.960
                             8 C    0.109
    12   6 C    3.932 --     1 O    1.562     3 O    1.470     6 C    0.868
    13   6 C    3.944 --    11 C    1.317    10 C    1.260     2 O    1.182
    14   1 H    0.993 --     5 C    0.956
    15   1 H    0.993 --     5 C    0.966
    16   1 H    0.993 --     6 C    0.956
    17   1 H    0.993 --     8 C    0.958
    18   1 H    0.990 --     9 C    0.960
    19   1 H    0.989 --    11 C    0.960
    20   1 H    0.901 --     4 N    0.793
    21   1 H    0.907 --     4 N    0.896
    22   1 H    0.849 --     2 O    0.787
    23   1 H    0.913 --     4 N    0.895
    24   7 N    3.901 --    25 O    1.417    26 O    1.361    10 C    1.055
    25   8 O    1.888 --    24 N    1.417    26 O    0.291
    26   8 O    1.871 --    24 N    1.361    25 O    0.291
 ---------------------------------------------------------------------------

Topologies differ in total number of bonds
Writing topology from bond orders to xtbtopo.mol

molecular dipole:
                 x           y           z       tot (Debye)
 q only:        1.410      -5.357       1.567
   full:        1.683      -5.081       1.641      14.230
molecular quadrupole (traceless):
                xx          xy          yy          xz          yz          zz
 q only:      -49.515      16.624      17.054     -16.959      -2.791      32.461
  q+dip:      -51.153      19.327      17.907     -16.385      -1.135      33.246
   full:      -52.265      19.224      16.180     -17.409      -1.460      36.085

           -------------------------------------------------
          |                Geometry Summary                 |
           -------------------------------------------------

      molecular mass/u    :      226.1864616
   center of mass at/Å    :        0.0346041       0.0510027      -0.0006165
  moments of inertia/u·Å² :        0.4620102E+03   0.1985920E+04   0.2295391E+04
rotational constants/cm⁻¹ :        0.3648758E-01   0.8488576E-02   0.7344123E-02

 * 23 selected distances

     #   Z          #   Z                                           value/Å
     4   7 N        6   6 C                                       1.4762925
     5   6 C        6   6 C                                       1.5268415 (max)
     7   6 C        8   6 C                                       1.3756860
     7   6 C        9   6 C                                       1.4020006
     8   6 C       10   6 C                                       1.4032251
     9   6 C       11   6 C                                       1.3739862
     1   8 O       12   6 C                                       1.2303930
     2   8 O       13   6 C                                       1.3262451
    10   6 C       13   6 C                                       1.4153854
    11   6 C       13   6 C                                       1.4016666
     5   6 C       14   1 H                                       1.0917358
     5   6 C       15   1 H                                       1.0902445
     6   6 C       16   1 H                                       1.0904725
     8   6 C       17   1 H                                       1.0797009
     9   6 C       18   1 H                                       1.0789315
    11   6 C       19   1 H                                       1.0775961
     4   7 N       20   1 H                                       1.0738740
     4   7 N       21   1 H                                       1.0210663
     2   8 O       22   1 H                                       0.9839259 (min)
     4   7 N       23   1 H                                       1.0223987
    10   6 C       24   7 N                                       1.4037088
    24   7 N       25   8 O                                       1.2229971
    24   7 N       26   8 O                                       1.2367808

 * 7 distinct bonds (by element types)

   Z      Z             #   av. dist./Å        max./Å        min./Å
   1 H    6 C           6     1.0847802     1.0917358     1.0775961
   6 C    6 C           7     1.4141131     1.5268415     1.3739862
   1 H    7 N           3     1.0391130     1.0738740     1.0210663
   6 C    7 N           2     1.4400007     1.4762925     1.4037088
   1 H    8 O           1     0.9839259     0.9839259     0.9839259
   6 C    8 O           2     1.2783190     1.3262451     1.2303930
   7 N    8 O           2     1.2298889     1.2367808     1.2229971

           -------------------------------------------------
          |               Frequency Printout                |
           -------------------------------------------------
 projected vibrational frequencies (cm⁻¹)
eigval :       -0.00    -0.00     0.00     0.00     0.00     0.00
eigval :       31.32    37.79    52.45    71.74    74.57   127.99
eigval :      158.87   181.60   229.17   318.03   325.39   344.03
eigval :      363.69   386.97   399.17   411.47   421.08   482.96
eigval :      522.15   550.83   569.19   636.44   640.75   662.58
eigval :      675.17   722.00   741.29   778.19   819.26   830.23
eigval :      854.09   886.95   893.69   922.27   927.76   961.49
eigval :     1015.25  1049.29  1081.49  1117.73  1127.92  1147.90
eigval :     1154.23  1185.91  1211.18  1240.94  1245.79  1259.84
eigval :     1286.34  1315.18  1325.08  1330.81  1366.26  1392.42
eigval :     1395.03  1404.34  1463.60  1467.22  1525.21  1536.21
eigval :     1600.90  1738.12  2539.17  2996.19  3003.52  3008.55
eigval :     3098.26  3101.10  3122.40  3156.93  3306.93  3322.15
 reduced masses (amu)
   1: 13.62   2: 13.41   3: 12.37   4: 13.83   5: 13.40   6: 14.48   7: 13.66   8: 13.28
   9: 14.01  10: 13.51  11: 14.54  12: 11.97  13: 12.71  14: 12.71  15: 12.05  16:  8.26
  17:  6.28  18: 11.88  19: 12.16  20: 11.66  21:  9.73  22: 11.95  23: 11.18  24: 11.56
  25: 12.11  26: 11.41  27: 12.49  28: 10.98  29:  3.30  30: 12.19  31: 11.31  32: 13.32
  33: 13.08  34: 12.81  35: 12.99  36:  6.89  37:  8.65  38:  6.08  39:  3.85  40:  5.55
  41:  3.79  42:  9.85  43:  4.85  44:  6.31  45:  6.16  46:  7.40  47:  6.50  48:  3.57
  49:  6.18  50:  4.15  51:  7.89  52: 10.02  53:  5.15  54:  4.34  55:  9.31  56:  5.04
  57: 11.72  58:  8.30  59: 11.03  60:  1.90  61:  2.11  62: 10.50  63:  6.34  64:  6.52
  65: 14.17  66: 11.63  67: 11.61  68: 12.91  69:  1.83  70:  1.92  71:  1.62  72:  1.72
  73:  1.82  74:  1.83  75:  1.86  76:  1.86  77:  1.78  78:  1.82
 IR intensities (km·mol⁻¹)
   1:  3.12   2:  0.81   3: 12.91   4:  2.34   5:  0.17   6:  1.64   7:  1.87   8: 42.33
   9:  8.62  10:  8.87  11:  5.25  12:  9.50  13: 13.56  14:  6.00  15:  4.08  16:  2.03
  17:  2.25  18: 37.41  19: 68.21  20: 37.01  21:  9.33  22: 18.82  23:  9.22  24: 23.64
  25: 77.39  26:  4.39  27: 13.84  28: 28.33  29:182.67  30: 34.17  31: 10.00  32: 52.85
  33: 82.22  34: 92.41  35: 39.94  36:102.59  37:155.77  38: 16.39  39:  2.90  40: 60.94
  41:  1.41  42: 10.88  43:107.03  44: 20.08  45:178.36  46:108.88  47:119.70  48:244.66
  49:  7.38  50: 26.07  51:222.21  52:612.08  53:295.90  54:162.22  55:329.78  56:352.21
  57:690.85  58:413.05  59: 76.75  60:142.01  61:161.91  62:105.53  63:135.22  64:157.89
  65:708.22  66: 71.35  67:104.91  68:759.02  69:809.28  70:  2.83  71: 11.94  72: 35.70
  73:  3.39  74:  2.19  75:  4.01  76:411.48  77: 96.16  78:131.58
 Raman intensities (amu)
   1:  0.00   2:  0.00   3:  0.00   4:  0.00   5:  0.00   6:  0.00   7:  0.00   8:  0.00
   9:  0.00  10:  0.00  11:  0.00  12:  0.00  13:  0.00  14:  0.00  15:  0.00  16:  0.00
  17:  0.00  18:  0.00  19:  0.00  20:  0.00  21:  0.00  22:  0.00  23:  0.00  24:  0.00
  25:  0.00  26:  0.00  27:  0.00  28:  0.00  29:  0.00  30:  0.00  31:  0.00  32:  0.00
  33:  0.00  34:  0.00  35:  0.00  36:  0.00  37:  0.00  38:  0.00  39:  0.00  40:  0.00
  41:  0.00  42:  0.00  43:  0.00  44:  0.00  45:  0.00  46:  0.00  47:  0.00  48:  0.00
  49:  0.00  50:  0.00  51:  0.00  52:  0.00  53:  0.00  54:  0.00  55:  0.00  56:  0.00
  57:  0.00  58:  0.00  59:  0.00  60:  0.00  61:  0.00  62:  0.00  63:  0.00  64:  0.00
  65:  0.00  66:  0.00  67:  0.00  68:  0.00  69:  0.00  70:  0.00  71:  0.00  72:  0.00
  73:  0.00  74:  0.00  75:  0.00  76:  0.00  77:  0.00  78:  0.00
 output can be read by thermo (or use thermo option).
 writing <g98.out> molden fake output.
 recommended (thermochemical) frequency scaling factor: 1.0
           -------------------------------------------------
          |             Thermodynamic Functions             |
           -------------------------------------------------

Molecule has no symmetry elements
It seems to be the C1 point group
c1  symmetry found (for desy threshold:  0.10E+00) used in thermo

          ...................................................
          :                      SETUP                      :
          :.................................................:
          :  # frequencies                          72      :
          :  # imaginary freq.                       0      :
          :  linear?                             false      :
          :  only rotor calc.                    false      :
          :  symmetry                               c1      :
          :  rotational number                       1      :
          :  scaling factor                  1.0000000      :
          :  rotor cutoff                   50.0000000 cm⁻¹ :
          :  imag. cutoff                  -20.0000000 cm⁻¹ :
          :.................................................:

    mode    ω/cm⁻¹     T·S(HO)/kcal·mol⁻¹    T·S(FR)/kcal·mol⁻¹   T·S(vib)
   ------------------------------------------------------------------------
       1     31.32    -1.71264 ( 13.34%)    -1.19505 ( 86.66%)    -1.26408
       2     37.79    -1.60164 ( 24.59%)    -1.13944 ( 75.41%)    -1.25312
       3     52.45    -1.40806 ( 54.78%)    -1.04230 ( 45.22%)    -1.24265
       4     71.74    -1.22390 ( 80.91%)    -0.94955 ( 19.09%)    -1.17153
       5     74.57    -1.20124 ( 83.18%)    -0.93810 ( 16.82%)    -1.15699
       6    127.99    -0.88728 ( 97.72%)    -0.77807 (  2.28%)    -0.88480
       7    158.87    -0.76421 ( 99.03%)    -0.71405 (  0.97%)    -0.76372
       8    181.60    -0.68929 ( 99.43%)    -0.67444 (  0.57%)    -0.68920
       9    229.17    -0.56214 ( 99.77%)    -0.60552 (  0.23%)    -0.56223
   ------------------------------------------------------------------------

   temp. (K)  partition function   enthalpy   heat capacity  entropy
                                   cal/mol     cal/K/mol   cal/K/mol   J/K/mol
 298.15  VIB  0.214E+06             7355.069     48.713     45.495
         ROT  0.351E+07              888.752      2.981     32.929
         INT  0.749E+12             8243.821     51.694     78.424
         TR   0.329E+28             1481.254      4.968     42.132
         TOT                        9725.0751    56.6619   120.5554   504.4039

       T/K    H(0)-H(T)+PV         H(T)/Eh          T*S/Eh         G(T)/Eh
   ------------------------------------------------------------------------
    298.15    0.154979E-01    0.203793E+00    0.572798E-01    0.146513E+00
   ------------------------------------------------------------------------

         :::::::::::::::::::::::::::::::::::::::::::::::::::::
         ::                  THERMODYNAMIC                  ::
         :::::::::::::::::::::::::::::::::::::::::::::::::::::
         :: total free energy         -50.344970615786 Eh   ::
         ::.................................................::
         :: total energy              -50.491483896924 Eh   ::
         :: zero point energy           0.188295164050 Eh   ::
         :: G(RRHO) w/o ZPVE           -0.041781882912 Eh   ::
         :: G(RRHO) contrib.            0.146513281138 Eh   ::
         :::::::::::::::::::::::::::::::::::::::::::::::::::::

optimized geometry written to: xtbopt.xyz


           -------------------------------------------------
          | TOTAL ENERGY              -50.491483896924 Eh   |
          | TOTAL ENTHALPY            -50.287690839153 Eh   |
          | TOTAL FREE ENERGY         -50.344970615786 Eh   |
          | GRADIENT NORM               0.000806327634 Eh/α |
          | HOMO-LUMO GAP               1.391882810560 eV   |
           -------------------------------------------------

------------------------------------------------------------------------
 * finished run on 2021/11/15 at 09:36:27.366     
------------------------------------------------------------------------
 total:
 * wall-time:     0 d,  0 h,  0 min,  2.944 sec
 *  cpu-time:     0 d,  0 h,  0 min,  2.891 sec
 * ratio c/w:     0.982 speedup
 SCF:
 * wall-time:     0 d,  0 h,  0 min,  0.028 sec
 *  cpu-time:     0 d,  0 h,  0 min,  0.016 sec
 * ratio c/w:     0.564 speedup
 ANC optimizer:
 * wall-time:     0 d,  0 h,  0 min,  0.283 sec
 *  cpu-time:     0 d,  0 h,  0 min,  0.281 sec
 * ratio c/w:     0.993 speedup
 analytical hessian:
 * wall-time:     0 d,  0 h,  0 min,  2.583 sec
 *  cpu-time:     0 d,  0 h,  0 min,  2.562 sec
 * ratio c/w:     0.992 speedup

