 Entering Gaussian System
 *********************************************
 Gaussian 98:
 frequency output generated by the xtb code
 *********************************************
                         Standard orientation:
 --------------------------------------------------------------------
  Center     Atomic     Atomic              Coordinates (Angstroms)
  Number     Number      Type              X           Y           Z
 --------------------------------------------------------------------
    1          8             0       -3.928934    1.649789   -0.710542
    2          8             0        3.784378   -1.372252    0.200607
    3          8             0       -4.775551    0.014989    0.569407
    4          7             0       -2.640713   -1.075901    1.225815
    5          6             0       -1.646848   -0.222816   -0.905448
    6          6             0       -2.408268    0.108555    0.375832
    7          6             0       -0.195133   -0.501925   -0.634914
    8          6             0        0.675408    0.528411   -0.364589
    9          6             0        0.304836   -1.811698   -0.623484
   10          6             0        2.027374    0.286317   -0.077152
   11          6             0        1.624642   -2.071339   -0.343238
   12          6             0       -3.857800    0.666994    0.026290
   13          6             0        2.528095   -1.037444   -0.061277
   14          1             0       -1.749556    0.642843   -1.562695
   15          1             0       -2.119074   -1.071838   -1.400217
   16          1             0       -1.890548    0.896574    0.923667
   17          1             0        0.339305    1.554415   -0.374888
   18          1             0       -0.350300   -2.636750   -0.856248
   19          1             0        2.011149   -3.077211   -0.336294
   20          1             0       -3.713070   -1.053733    1.278407
   21          1             0       -2.239233   -1.004728    2.161936
   22          1             0        4.336614   -0.576177    0.372100
   23          1             0       -2.334011   -1.941935    0.777241
   24          7             0        2.851536    1.392270    0.183657
   25          8             0        2.371625    2.517134    0.174240
   26          8             0        4.050192    1.199359    0.419529
 --------------------------------------------------------------------
     1 basis functions        1 primitive gaussians
     1 alpha electrons        1 beta electrons
 
 Harmonic frequencies (cm**-1), IR intensities (km*mol⁻¹),
 Raman scattering activities (A**4/amu), Raman depolarization ratios,
 reduced masses (AMU), force constants (mDyne/A) and normal coordinates:
                      1                      2                      3
                        a                      a                      a 
 Frequencies --    31.3165                37.7855                52.4539
 Red. masses --    13.6560                13.2824                14.0150
 Frc consts  --     0.0000                 0.0000                 0.0000
 IR Inten    --     1.8660                42.3252                 8.6194
 Raman Activ --     0.0000                 0.0000                 0.0000
 Depolar     --     0.0000                 0.0000                 0.0000
 Atom AN      X      Y      Z        X      Y      Z        X      Y      Z
   1   8    -0.17   0.09   0.32    -0.40  -0.30  -0.27    -0.01   0.04  -0.05
   2   8    -0.13  -0.09   0.25    -0.04  -0.10  -0.08     0.12   0.00  -0.30
   3   8    -0.03  -0.38  -0.18     0.05  -0.23   0.10    -0.17  -0.15  -0.40
   4   7     0.07  -0.16  -0.19     0.30   0.35   0.18    -0.21   0.02   0.07
   5   6     0.01   0.24  -0.04    -0.00   0.14  -0.03     0.01   0.03   0.18
   6   6    -0.02   0.00   0.01     0.02   0.23  -0.05    -0.12   0.03   0.10
   7   6    -0.01   0.17  -0.02    -0.01   0.10  -0.02     0.00   0.02   0.23
   8   6     0.07   0.12  -0.07     0.03   0.06   0.02     0.03   0.01   0.19
   9   6    -0.10   0.13   0.08    -0.06   0.08  -0.06    -0.01   0.02   0.22
  10   6     0.04   0.04  -0.02     0.02  -0.01   0.02     0.06   0.00   0.05
  11   6    -0.14   0.05   0.16    -0.07   0.02  -0.08     0.01   0.01   0.09
  12   6    -0.07  -0.09   0.06    -0.11  -0.11  -0.07    -0.09  -0.02  -0.11
  13   6    -0.07  -0.00   0.12    -0.03  -0.03  -0.04     0.06   0.01  -0.05
  14   1     0.01   0.11   0.04     0.00   0.03  -0.03     0.02   0.01   0.05
  15   1     0.01   0.10  -0.06    -0.01   0.03   0.01     0.01   0.01   0.04
  16   1    -0.03  -0.01   0.04    -0.03   0.12  -0.06    -0.06   0.01   0.04
  17   1     0.04   0.04  -0.04     0.02   0.02   0.02     0.01   0.00   0.07
  18   1    -0.04   0.05   0.03    -0.03   0.03  -0.03    -0.01   0.01   0.08
  19   1    -0.06   0.01   0.07    -0.03   0.00  -0.03     0.00   0.00   0.01
  20   1     0.02  -0.09  -0.08     0.08   0.04   0.06    -0.06  -0.02  -0.05
  21   1    -0.01  -0.06  -0.04     0.09   0.16   0.04    -0.12   0.02   0.04
  22   1    -0.02  -0.03   0.05    -0.00  -0.03  -0.01     0.04   0.00  -0.11
  23   1     0.07  -0.01  -0.07     0.12   0.09   0.09    -0.01   0.01   0.05
  24   7     0.14  -0.01  -0.11     0.06  -0.06   0.09     0.10  -0.00  -0.03
  25   8     0.27   0.04  -0.30     0.11  -0.04   0.18     0.06  -0.02   0.30
  26   8     0.12  -0.10  -0.04     0.06  -0.13   0.07     0.19   0.00  -0.44
                      4                      5                      6
                        a                      a                      a 
 Frequencies --    71.7414                74.5686               127.9946
 Red. masses --    13.5077                14.5368                11.9700
 Frc consts  --     0.0000                 0.0000                 0.0000
 IR Inten    --     8.8705                 5.2456                 9.4961
 Raman Activ --     0.0000                 0.0000                 0.0000
 Depolar     --     0.0000                 0.0000                 0.0000
 Atom AN      X      Y      Z        X      Y      Z        X      Y      Z
   1   8     0.09   0.28   0.29     0.04   0.16   0.19    -0.06   0.05   0.05
   2   8     0.03   0.03  -0.13    -0.11  -0.00   0.31     0.10   0.03  -0.46
   3   8     0.06  -0.28  -0.44     0.16  -0.09  -0.04     0.07   0.02   0.09
   4   7     0.12   0.25   0.24     0.23   0.09  -0.03     0.10  -0.04  -0.17
   5   6    -0.03  -0.12   0.05    -0.01  -0.05  -0.15     0.03   0.03  -0.13
   6   6     0.07   0.12   0.06     0.12   0.05  -0.10     0.03   0.00  -0.12
   7   6    -0.02  -0.11   0.00    -0.01  -0.06  -0.16    -0.00  -0.01  -0.03
   8   6    -0.05  -0.08  -0.00    -0.03  -0.04  -0.18     0.04   0.00  -0.24
   9   6     0.02  -0.09  -0.03    -0.02  -0.06  -0.02    -0.10  -0.05   0.43
  10   6    -0.04  -0.04  -0.01    -0.05  -0.02  -0.07     0.02   0.00  -0.14
  11   6     0.04  -0.04  -0.08    -0.04  -0.04   0.11    -0.09  -0.04   0.37
  12   6     0.06   0.04  -0.02     0.09   0.04   0.03     0.01   0.02   0.00
  13   6     0.01  -0.02  -0.06    -0.06  -0.02   0.08     0.01  -0.00  -0.07
  14   1    -0.01  -0.06  -0.03    -0.00  -0.02  -0.06     0.03   0.02  -0.03
  15   1    -0.03  -0.05   0.07    -0.02  -0.02  -0.02     0.01   0.02  -0.05
  16   1     0.04   0.06  -0.03     0.06   0.02  -0.06     0.01  -0.00  -0.03
  17   1    -0.03  -0.03   0.01    -0.01  -0.01  -0.08     0.02   0.00  -0.12
  18   1     0.01  -0.03  -0.01    -0.00  -0.02  -0.00    -0.05  -0.03   0.22
  19   1     0.02  -0.01  -0.04    -0.01  -0.01   0.07    -0.04  -0.02   0.18
  20   1     0.02  -0.02  -0.04     0.06  -0.01  -0.02     0.03  -0.01  -0.02
  21   1    -0.07   0.17   0.10     0.04   0.06  -0.00     0.05  -0.02  -0.05
  22   1    -0.01   0.01  -0.00    -0.02   0.01   0.03     0.03   0.01  -0.13
  23   1     0.15   0.06   0.16     0.10   0.02   0.02     0.01  -0.00  -0.07
  24   7    -0.10  -0.01   0.02    -0.10  -0.00  -0.02    -0.03  -0.00   0.05
  25   8    -0.11  -0.01  -0.22    -0.25  -0.06   0.47    -0.07  -0.02   0.13
  26   8    -0.16   0.02   0.30    -0.01   0.07  -0.47    -0.08  -0.00   0.28
                      7                      8                      9
                        a                      a                      a 
 Frequencies --   158.8719               181.6020               229.1728
 Red. masses --    12.7099                12.7143                12.0457
 Frc consts  --     0.0000                 0.0000                 0.0000
 IR Inten    --    13.5619                 6.0016                 4.0816
 Raman Activ --     0.0000                 0.0000                 0.0000
 Depolar     --     0.0000                 0.0000                 0.0000
 Atom AN      X      Y      Z        X      Y      Z        X      Y      Z
   1   8    -0.39   0.22   0.17    -0.34   0.14   0.17     0.08   0.04   0.09
   2   8     0.17   0.02  -0.07     0.12   0.04   0.22    -0.12   0.15  -0.14
   3   8    -0.02   0.03   0.15    -0.22   0.03   0.07     0.01   0.02   0.03
   4   7     0.07   0.09  -0.26    -0.26   0.10   0.07     0.03   0.01   0.06
   5   6     0.08  -0.03  -0.16    -0.02  -0.19   0.02    -0.11  -0.38  -0.19
   6   6    -0.05   0.09  -0.27    -0.16  -0.03  -0.07    -0.01  -0.16  -0.19
   7   6     0.03  -0.13   0.11     0.07  -0.05  -0.07    -0.05   0.01  -0.09
   8   6    -0.03  -0.14   0.36     0.14  -0.02  -0.35    -0.17   0.10   0.10
   9   6     0.12  -0.10  -0.02     0.15  -0.03  -0.00    -0.01   0.03  -0.03
  10   6    -0.01  -0.09   0.28     0.15   0.02  -0.28    -0.15   0.15   0.14
  11   6     0.12  -0.07   0.03     0.18   0.01  -0.09    -0.05   0.08   0.11
  12   6    -0.14   0.08  -0.02    -0.21   0.03   0.01     0.02  -0.05  -0.03
  13   6     0.09  -0.05   0.12     0.16   0.02  -0.09    -0.13   0.15   0.07
  14   1     0.08  -0.02  -0.07    -0.03  -0.09  -0.04    -0.10  -0.18  -0.13
  15   1     0.03  -0.01  -0.05     0.02  -0.09   0.04     0.02  -0.19   0.03
  16   1    -0.02   0.03  -0.08    -0.05   0.01  -0.04     0.03  -0.03  -0.11
  17   1    -0.02  -0.04   0.14     0.05  -0.00  -0.13    -0.07   0.02   0.04
  18   1     0.06  -0.03  -0.05     0.05  -0.02   0.04     0.01   0.01  -0.03
  19   1     0.05  -0.01  -0.03     0.05   0.00  -0.01     0.01   0.03   0.04
  20   1     0.02   0.03  -0.03    -0.07   0.04   0.01     0.01  -0.01   0.01
  21   1     0.06   0.02  -0.09    -0.08   0.05   0.02    -0.01   0.08   0.02
  22   1     0.03   0.01  -0.02     0.02   0.01   0.06    -0.02   0.04  -0.04
  23   1    -0.00   0.03  -0.09    -0.08   0.00   0.06     0.03  -0.03   0.09
  24   7    -0.02  -0.02   0.03     0.12  -0.01  -0.04     0.08   0.02   0.06
  25   8    -0.08  -0.04  -0.18     0.12  -0.01   0.16     0.44   0.17   0.06
  26   8     0.02   0.09  -0.13     0.10  -0.04   0.13     0.07  -0.28  -0.05
                     10                     11                     12
                        a                      a                      a 
 Frequencies --   318.0347               325.3888               344.0323
 Red. masses --     8.2632                 6.2771                11.8809
 Frc consts  --     0.0000                 0.0000                 0.0000
 IR Inten    --     2.0263                 2.2486                37.4141
 Raman Activ --     0.0000                 0.0000                 0.0000
 Depolar     --     0.0000                 0.0000                 0.0000
 Atom AN      X      Y      Z        X      Y      Z        X      Y      Z
   1   8     0.03  -0.05   0.03    -0.07  -0.04  -0.12     0.07   0.05   0.02
   2   8     0.08  -0.29  -0.13    -0.02   0.23   0.11    -0.21  -0.44   0.09
   3   8    -0.07   0.09   0.13     0.07   0.09   0.13    -0.03   0.06   0.01
   4   7    -0.13  -0.03   0.08     0.04  -0.11  -0.23     0.18  -0.05  -0.07
   5   6    -0.01  -0.04  -0.12     0.01   0.06   0.07     0.03  -0.21  -0.01
   6   6    -0.03  -0.14  -0.07     0.03   0.09   0.05    -0.05  -0.06  -0.14
   7   6     0.06   0.17  -0.21    -0.05  -0.12   0.15    -0.01   0.03   0.29
   8   6     0.13   0.06   0.00    -0.09  -0.05   0.00     0.05   0.04   0.08
   9   6     0.01   0.16  -0.17    -0.00  -0.11   0.14    -0.14   0.00   0.29
  10   6     0.11  -0.06   0.11    -0.07   0.02  -0.07     0.09   0.07  -0.04
  11   6    -0.09   0.02   0.19     0.08  -0.01  -0.15    -0.03   0.04  -0.31
  12   6    -0.02  -0.04   0.02     0.02   0.09   0.06    -0.03  -0.03  -0.05
  13   6     0.04  -0.08   0.14    -0.00   0.05  -0.10    -0.03   0.01  -0.21
  14   1    -0.07  -0.01  -0.02     0.06   0.03   0.03    -0.00  -0.12  -0.08
  15   1     0.04  -0.04  -0.03    -0.03   0.05   0.00     0.07  -0.12   0.04
  16   1     0.00  -0.03  -0.04     0.02   0.00   0.04    -0.02   0.00  -0.07
  17   1     0.07   0.03   0.02    -0.04  -0.02  -0.02     0.01   0.01  -0.00
  18   1     0.00   0.06  -0.10     0.00  -0.04   0.07    -0.07   0.01   0.15
  19   1    -0.07  -0.01   0.08     0.05   0.01  -0.07     0.01   0.02  -0.14
  20   1    -0.05  -0.14  -0.21    -0.01  -0.24  -0.36     0.06  -0.06   0.01
  21   1    -0.33   0.21   0.13    -0.38   0.13   0.09     0.07   0.02  -0.03
  22   1     0.06  -0.10  -0.05    -0.04   0.08   0.04     0.01  -0.18   0.07
  23   1     0.27  -0.02   0.25     0.44   0.04   0.10     0.08  -0.01  -0.01
  24   7     0.04   0.04   0.04    -0.03  -0.04  -0.03     0.05   0.17   0.00
  25   8    -0.17  -0.04  -0.06     0.11   0.01   0.03    -0.04   0.16   0.01
  26   8     0.07   0.25   0.01    -0.05  -0.18  -0.01     0.04   0.24   0.04
                     13                     14                     15
                        a                      a                      a 
 Frequencies --   363.6871               386.9671               399.1704
 Red. masses --    12.1614                11.6599                 9.7339
 Frc consts  --     0.0000                 0.0000                 0.0000
 IR Inten    --    68.2141                37.0139                 9.3337
 Raman Activ --     0.0000                 0.0000                 0.0000
 Depolar     --     0.0000                 0.0000                 0.0000
 Atom AN      X      Y      Z        X      Y      Z        X      Y      Z
   1   8     0.26   0.03   0.05     0.04   0.01  -0.01     0.07  -0.03   0.08
   2   8     0.16   0.22   0.08    -0.09  -0.16  -0.08    -0.02   0.06  -0.07
   3   8    -0.43   0.20  -0.05    -0.26   0.12  -0.05    -0.02  -0.02   0.04
   4   7     0.37  -0.09   0.12     0.17  -0.05   0.06    -0.13   0.08   0.14
   5   6    -0.06   0.07  -0.08     0.01   0.14   0.05     0.08   0.17  -0.15
   6   6    -0.19  -0.11  -0.11    -0.07   0.02   0.06    -0.01  -0.11  -0.09
   7   6    -0.05   0.11   0.04    -0.00  -0.31  -0.09     0.01  -0.09  -0.06
   8   6     0.01   0.06   0.01    -0.03  -0.26  -0.02     0.07  -0.06  -0.32
   9   6     0.02   0.13   0.07     0.02  -0.32  -0.23    -0.08  -0.14   0.21
  10   6    -0.01  -0.09  -0.02     0.05   0.11  -0.09    -0.09  -0.02   0.46
  11   6     0.04   0.02  -0.04    -0.01  -0.06   0.18     0.05  -0.02  -0.29
  12   6    -0.22  -0.10  -0.04    -0.14  -0.00   0.01     0.01  -0.09  -0.02
  13   6     0.09  -0.03  -0.01    -0.06   0.04   0.05    -0.07  -0.01   0.12
  14   1    -0.01   0.05   0.02     0.09   0.11   0.10     0.09   0.15   0.08
  15   1     0.02   0.04  -0.08    -0.07   0.13  -0.08    -0.00   0.14  -0.17
  16   1    -0.10   0.03  -0.06    -0.05   0.02   0.03    -0.01  -0.02  -0.03
  17   1     0.03   0.03   0.00    -0.07  -0.09   0.01     0.04  -0.01  -0.25
  18   1     0.00   0.04   0.03     0.05  -0.11  -0.12    -0.03  -0.05   0.11
  19   1    -0.02  -0.01  -0.03     0.05   0.00   0.11     0.06   0.01  -0.21
  20   1     0.15  -0.17   0.14     0.07  -0.11   0.05    -0.04   0.06   0.03
  21   1     0.17   0.07  -0.00     0.06   0.01   0.01    -0.04   0.08   0.03
  22   1    -0.01   0.09   0.01     0.02  -0.07  -0.03    -0.02   0.02  -0.00
  23   1     0.17  -0.01   0.05     0.11   0.01   0.00    -0.06  -0.02   0.11
  24   7    -0.02  -0.16  -0.02     0.06   0.23  -0.02    -0.02   0.02   0.21
  25   8    -0.09  -0.20  -0.04     0.22   0.32   0.10     0.09   0.07  -0.07
  26   8    -0.01  -0.11  -0.01     0.03   0.13   0.05     0.06   0.06  -0.11
                     16                     17                     18
                        a                      a                      a 
 Frequencies --   411.4658               421.0800               482.9590
 Red. masses --    11.9507                11.1848                11.5642
 Frc consts  --     0.0000                 0.0000                 0.0000
 IR Inten    --    18.8212                 9.2187                23.6422
 Raman Activ --     0.0000                 0.0000                 0.0000
 Depolar     --     0.0000                 0.0000                 0.0000
 Atom AN      X      Y      Z        X      Y      Z        X      Y      Z
   1   8     0.07  -0.01   0.08     0.10  -0.03   0.10     0.14  -0.10  -0.02
   2   8    -0.20   0.34   0.08     0.06  -0.23   0.09     0.28  -0.02   0.14
   3   8     0.06  -0.04   0.07     0.06  -0.05   0.08     0.02  -0.10   0.00
   4   7    -0.13   0.08   0.09    -0.16   0.12   0.12    -0.05   0.07  -0.06
   5   6     0.12   0.07  -0.13     0.12   0.19  -0.18    -0.40   0.05  -0.19
   6   6    -0.01  -0.13  -0.16    -0.01  -0.14  -0.17    -0.03   0.09   0.04
   7   6     0.04  -0.04   0.06     0.02   0.00   0.03    -0.31  -0.05  -0.27
   8   6    -0.01  -0.04   0.24    -0.08   0.01   0.20    -0.09  -0.26   0.13
   9   6    -0.15  -0.12  -0.03     0.11   0.04   0.08    -0.17   0.01   0.13
  10   6     0.09  -0.01  -0.23    -0.02   0.06  -0.20     0.04  -0.08   0.03
  11   6    -0.17  -0.17  -0.00     0.13   0.11   0.05    -0.04   0.17  -0.06
  12   6     0.05  -0.10  -0.06     0.05  -0.13  -0.06     0.02   0.03   0.13
  13   6    -0.18  -0.07  -0.22     0.17   0.10  -0.14     0.25  -0.01  -0.17
  14   1     0.08   0.08   0.03     0.11   0.16   0.07    -0.14   0.01  -0.06
  15   1     0.05   0.07  -0.13     0.04   0.14  -0.21    -0.16   0.01  -0.01
  16   1    -0.01  -0.02  -0.06    -0.02  -0.02  -0.06     0.05   0.01  -0.01
  17   1    -0.04  -0.02   0.15    -0.03   0.00   0.13    -0.01  -0.07   0.11
  18   1    -0.08  -0.01   0.00     0.04  -0.00   0.06    -0.01  -0.06   0.15
  19   1    -0.05  -0.05   0.06     0.03   0.03   0.06    -0.07   0.03   0.04
  20   1    -0.05   0.07   0.01    -0.06   0.09   0.01    -0.02   0.03  -0.02
  21   1    -0.04   0.10   0.02    -0.05   0.12   0.03    -0.01  -0.02  -0.01
  22   1    -0.12   0.15   0.01     0.07  -0.10   0.05     0.05  -0.00   0.07
  23   1    -0.06  -0.03   0.11    -0.08  -0.03   0.13    -0.03   0.03  -0.05
  24   7     0.20  -0.05  -0.06    -0.19   0.06  -0.12     0.07   0.01   0.07
  25   8     0.00  -0.15   0.03    -0.02   0.15   0.04     0.13   0.03  -0.00
  26   8     0.26   0.27   0.14    -0.31  -0.32  -0.04     0.12   0.15   0.01
                     19                     20                     21
                        a                      a                      a 
 Frequencies --   522.1490               550.8302               569.1929
 Red. masses --    12.1056                11.4083                12.4892
 Frc consts  --     0.0000                 0.0000                 0.0000
 IR Inten    --    77.3934                 4.3851                13.8408
 Raman Activ --     0.0000                 0.0000                 0.0000
 Depolar     --     0.0000                 0.0000                 0.0000
 Atom AN      X      Y      Z        X      Y      Z        X      Y      Z
   1   8    -0.43   0.18  -0.13    -0.18   0.17  -0.10     0.00   0.01   0.01
   2   8    -0.04  -0.00   0.06     0.19   0.01  -0.02     0.23   0.13   0.07
   3   8     0.09   0.18  -0.18     0.30   0.02  -0.03     0.01   0.01   0.01
   4   7     0.11  -0.30   0.29     0.04  -0.18   0.17     0.00  -0.01  -0.01
   5   6     0.04  -0.00  -0.00    -0.17   0.01  -0.07     0.04  -0.03   0.03
   6   6     0.12  -0.21   0.12    -0.06  -0.20  -0.06    -0.00  -0.01  -0.01
   7   6     0.10   0.03  -0.32    -0.28  -0.03   0.36     0.05   0.12   0.01
   8   6    -0.01   0.02   0.10    -0.03  -0.11  -0.05     0.18  -0.01   0.03
   9   6    -0.01  -0.01   0.11    -0.12   0.06  -0.07    -0.14   0.06  -0.03
  10   6    -0.02  -0.00   0.09     0.04  -0.03  -0.14     0.07  -0.21   0.00
  11   6     0.01  -0.02  -0.02    -0.08   0.15  -0.03    -0.16  -0.33  -0.06
  12   6     0.05   0.17  -0.09     0.11   0.09  -0.14    -0.00  -0.02  -0.03
  13   6     0.04   0.02  -0.26     0.04  -0.03   0.32     0.04  -0.39  -0.04
  14   1    -0.03   0.06   0.08     0.00   0.07   0.06    -0.03  -0.05  -0.03
  15   1     0.00   0.04  -0.05    -0.03   0.05  -0.12     0.05  -0.06   0.06
  16   1     0.07  -0.11   0.07     0.03  -0.08  -0.02    -0.02   0.01  -0.00
  17   1    -0.03  -0.00   0.12     0.04  -0.02  -0.13     0.11   0.02   0.03
  18   1    -0.04  -0.01   0.17     0.03   0.01  -0.19    -0.11   0.07  -0.02
  19   1    -0.02  -0.01   0.10    -0.03   0.04  -0.17    -0.15  -0.14  -0.04
  20   1     0.05  -0.08   0.09     0.02  -0.03   0.07     0.00  -0.00  -0.00
  21   1     0.05  -0.04   0.07     0.05   0.03   0.02    -0.00   0.00  -0.00
  22   1    -0.02  -0.00   0.06     0.05   0.01  -0.07    -0.08   0.14  -0.02
  23   1     0.02  -0.09   0.10     0.00  -0.08   0.10     0.00  -0.00   0.00
  24   7    -0.03  -0.01   0.13     0.06   0.01  -0.19    -0.22   0.16  -0.02
  25   8     0.00   0.00  -0.06     0.03  -0.00   0.09     0.25   0.41   0.08
  26   8     0.00  -0.01  -0.05     0.01   0.04   0.09    -0.28   0.01  -0.06
                     22                     23                     24
                        a                      a                      a 
 Frequencies --   636.4388               640.7513               662.5849
 Red. masses --    10.9848                 3.2958                12.1875
 Frc consts  --     0.0000                 0.0000                 0.0000
 IR Inten    --    28.3335               182.6719                34.1729
 Raman Activ --     0.0000                 0.0000                 0.0000
 Depolar     --     0.0000                 0.0000                 0.0000
 Atom AN      X      Y      Z        X      Y      Z        X      Y      Z
   1   8     0.12   0.24  -0.01    -0.03  -0.07  -0.00     0.07   0.09  -0.08
   2   8     0.03   0.02  -0.03     0.05   0.02  -0.25    -0.05  -0.13  -0.01
   3   8     0.29  -0.10   0.24    -0.08   0.02  -0.07     0.14  -0.11   0.07
   4   7    -0.01  -0.03  -0.01     0.00   0.01   0.01    -0.01  -0.03   0.03
   5   6    -0.03   0.02   0.26     0.00  -0.01  -0.08    -0.20   0.06  -0.03
   6   6    -0.27   0.01  -0.03     0.07  -0.00   0.00    -0.16   0.01   0.00
   7   6    -0.03  -0.03   0.04    -0.00   0.01   0.02    -0.08   0.05  -0.01
   8   6     0.05  -0.07  -0.13    -0.02   0.02   0.02    -0.28   0.26  -0.04
   9   6    -0.05  -0.02  -0.16     0.02   0.01   0.03     0.35   0.11   0.08
  10   6     0.00   0.00   0.13    -0.01  -0.01  -0.01    -0.24  -0.08  -0.06
  11   6    -0.09   0.10   0.13     0.01  -0.05   0.02     0.28  -0.39   0.04
  12   6    -0.07  -0.16  -0.43     0.02   0.05   0.12    -0.05   0.07  -0.04
  13   6     0.08   0.06  -0.24    -0.03  -0.03   0.12    -0.05  -0.13  -0.03
  14   1    -0.01  -0.01   0.05     0.01   0.00  -0.01    -0.02   0.06   0.05
  15   1    -0.01  -0.01   0.09     0.00   0.00  -0.03    -0.09   0.07  -0.06
  16   1    -0.23   0.08   0.02     0.07  -0.02  -0.01    -0.04   0.00  -0.00
  17   1    -0.00  -0.02   0.00     0.01   0.01  -0.02    -0.06   0.08  -0.01
  18   1    -0.01  -0.02   0.02     0.00   0.01  -0.01     0.07   0.05   0.02
  19   1    -0.04   0.02   0.14     0.01  -0.01  -0.03     0.06  -0.12   0.01
  20   1    -0.00  -0.04   0.01     0.00   0.01  -0.00    -0.00  -0.03   0.02
  21   1     0.02   0.02  -0.02    -0.01  -0.00   0.01     0.02   0.01  -0.01
  22   1    -0.05  -0.02   0.29    -0.20  -0.06   0.88     0.01  -0.05  -0.03
  23   1     0.06   0.02  -0.02    -0.02  -0.01   0.01     0.02   0.01  -0.00
  24   7    -0.03  -0.01   0.20     0.03   0.01  -0.17    -0.02  -0.10  -0.01
  25   8    -0.01  -0.01  -0.07     0.01   0.00   0.07     0.21  -0.01   0.04
  26   8     0.02  -0.03  -0.08    -0.00   0.02  -0.01     0.04   0.31   0.03
                     25                     26                     27
                        a                      a                      a 
 Frequencies --   675.1700               722.0015               741.2863
 Red. masses --    11.3139                13.3199                13.0797
 Frc consts  --     0.0000                 0.0000                 0.0000
 IR Inten    --    10.0007                52.8520                82.2235
 Raman Activ --     0.0000                 0.0000                 0.0000
 Depolar     --     0.0000                 0.0000                 0.0000
 Atom AN      X      Y      Z        X      Y      Z        X      Y      Z
   1   8    -0.05  -0.12  -0.03    -0.20  -0.15   0.30    -0.01  -0.02   0.01
   2   8     0.00  -0.01   0.07     0.11  -0.06   0.03     0.03  -0.00  -0.07
   3   8    -0.08   0.01  -0.13    -0.12   0.38  -0.10    -0.01   0.02  -0.02
   4   7     0.01   0.01   0.01     0.04   0.08  -0.07     0.01   0.01  -0.01
   5   6    -0.01  -0.04  -0.13     0.03   0.02   0.08     0.01  -0.01  -0.00
   6   6     0.07  -0.04  -0.06     0.23   0.03   0.07     0.01  -0.01  -0.02
   7   6    -0.12  -0.03   0.46    -0.10  -0.03   0.04    -0.01  -0.01   0.05
   8   6     0.02   0.03  -0.19    -0.18   0.06  -0.05    -0.02   0.01  -0.01
   9   6     0.05   0.05  -0.23    -0.02   0.04  -0.02    -0.01   0.00   0.02
  10   6    -0.05  -0.02   0.14    -0.17  -0.06  -0.02     0.09   0.03  -0.51
  11   6    -0.06  -0.02   0.25    -0.02   0.05   0.03     0.01   0.02  -0.10
  12   6     0.07   0.15   0.28     0.29  -0.45  -0.30     0.03   0.01   0.03
  13   6     0.11   0.02  -0.46     0.05  -0.01  -0.04    -0.06  -0.02   0.30
  14   1     0.07   0.02  -0.00     0.01  -0.00   0.01     0.02   0.01   0.01
  15   1     0.02   0.02  -0.10    -0.04   0.01   0.06     0.01   0.01  -0.02
  16   1     0.14  -0.06  -0.05    -0.03   0.06   0.03     0.01  -0.01  -0.01
  17   1     0.03   0.02  -0.13    -0.05   0.02  -0.04    -0.04  -0.01   0.13
  18   1     0.02   0.03  -0.13     0.01   0.00  -0.03    -0.01  -0.00   0.03
  19   1    -0.04  -0.01   0.12    -0.03   0.00  -0.01    -0.01   0.00   0.02
  20   1     0.00   0.02   0.01    -0.00   0.05  -0.06     0.00   0.01  -0.00
  21   1     0.01   0.03  -0.01    -0.06  -0.05   0.02     0.00   0.01  -0.00
  22   1    -0.00  -0.00   0.03     0.04  -0.03   0.01    -0.01  -0.01   0.07
  23   1    -0.03  -0.02   0.03    -0.00   0.02  -0.03    -0.00  -0.00   0.01
  24   7    -0.06  -0.03   0.26    -0.04  -0.11  -0.02    -0.15  -0.07   0.69
  25   8     0.04   0.01  -0.08     0.16  -0.06   0.03     0.06   0.01  -0.19
  26   8     0.02   0.03  -0.07    -0.01   0.20   0.01     0.04   0.04  -0.20
                     28                     29                     30
                        a                      a                      a 
 Frequencies --   778.1888               819.2595               830.2274
 Red. masses --    12.8144                12.9911                 6.8852
 Frc consts  --     0.0000                 0.0000                 0.0000
 IR Inten    --    92.4084                39.9380               102.5906
 Raman Activ --     0.0000                 0.0000                 0.0000
 Depolar     --     0.0000                 0.0000                 0.0000
 Atom AN      X      Y      Z        X      Y      Z        X      Y      Z
   1   8     0.09   0.09  -0.12    -0.01  -0.02   0.01    -0.07  -0.14   0.05
   2   8     0.20  -0.07   0.04    -0.42   0.08  -0.09     0.03  -0.00  -0.03
   3   8    -0.05  -0.17   0.08     0.02   0.02  -0.02     0.09   0.09  -0.14
   4   7     0.01  -0.00   0.00    -0.01  -0.02   0.01    -0.03   0.05  -0.07
   5   6     0.35  -0.09   0.10    -0.04   0.05  -0.02    -0.02  -0.05   0.14
   6   6     0.09  -0.04  -0.03    -0.05   0.01  -0.01    -0.28  -0.04  -0.13
   7   6     0.12  -0.06  -0.05    -0.03   0.04   0.01     0.00  -0.01   0.08
   8   6    -0.16   0.11  -0.04     0.30  -0.35   0.03     0.03   0.04  -0.17
   9   6    -0.20  -0.07  -0.06     0.19   0.18   0.05     0.02   0.01  -0.21
  10   6    -0.21  -0.07  -0.02     0.13  -0.19   0.01    -0.04  -0.00   0.11
  11   6    -0.16   0.27  -0.04     0.11   0.21   0.04     0.03   0.02  -0.22
  12   6    -0.23   0.18   0.09     0.05  -0.01   0.02     0.26   0.03   0.20
  13   6     0.07   0.06   0.04    -0.06   0.09  -0.00    -0.03  -0.02   0.17
  14   1     0.13  -0.02   0.03    -0.04  -0.02  -0.04     0.06   0.02   0.08
  15   1     0.11  -0.01  -0.01     0.02  -0.03   0.03     0.02   0.03  -0.05
  16   1     0.03  -0.03   0.01    -0.02   0.00  -0.00    -0.07   0.00  -0.05
  17   1    -0.09   0.02   0.02     0.19  -0.06   0.05    -0.07  -0.01   0.27
  18   1    -0.06  -0.03   0.03     0.11   0.00   0.03    -0.10  -0.04   0.41
  19   1    -0.06   0.07   0.03     0.07   0.08   0.02    -0.10  -0.03   0.40
  20   1     0.00   0.02  -0.01    -0.00  -0.01   0.01     0.00  -0.06   0.05
  21   1    -0.01   0.01   0.01     0.01   0.01  -0.00     0.10   0.12  -0.07
  22   1     0.07  -0.04   0.01    -0.07  -0.00  -0.02     0.01   0.00  -0.04
  23   1    -0.03  -0.02   0.02     0.00  -0.01   0.01     0.06   0.02   0.00
  24   7    -0.13  -0.24  -0.09    -0.20  -0.22  -0.06     0.03   0.01  -0.13
  25   8     0.29  -0.16   0.06     0.29  -0.11   0.05    -0.01  -0.01   0.04
  26   8    -0.15   0.30   0.00    -0.27   0.24  -0.04    -0.01  -0.00   0.03
                     31                     32                     33
                        a                      a                      a 
 Frequencies --   854.0948               886.9527               893.6900
 Red. masses --     8.6486                 6.0849                 3.8490
 Frc consts  --     0.0000                 0.0000                 0.0000
 IR Inten    --   155.7661                16.3909                 2.9005
 Raman Activ --     0.0000                 0.0000                 0.0000
 Depolar     --     0.0000                 0.0000                 0.0000
 Atom AN      X      Y      Z        X      Y      Z        X      Y      Z
   1   8    -0.07  -0.16   0.05    -0.01   0.00  -0.01    -0.01  -0.01   0.00
   2   8     0.06  -0.02   0.04    -0.05   0.01   0.00    -0.01   0.01  -0.02
   3   8     0.14   0.09  -0.15    -0.01  -0.00  -0.00     0.02   0.01  -0.01
   4   7    -0.10  -0.01  -0.02     0.06   0.24  -0.14    -0.01   0.10  -0.03
   5   6     0.07   0.06   0.10    -0.08  -0.39   0.27    -0.02  -0.18   0.11
   6   6    -0.42   0.03  -0.13     0.03  -0.18   0.02    -0.06  -0.05   0.01
   7   6     0.14   0.01  -0.20    -0.01   0.00  -0.12     0.04   0.00  -0.11
   8   6    -0.03   0.08   0.08     0.05  -0.04  -0.09    -0.05  -0.02   0.35
   9   6    -0.11  -0.15   0.14     0.03   0.16   0.07    -0.01   0.04   0.03
  10   6    -0.02   0.02  -0.05     0.02  -0.03   0.02     0.03  -0.01  -0.05
  11   6    -0.07   0.01   0.16    -0.06   0.04   0.15     0.03   0.04  -0.19
  12   6     0.31   0.05   0.24    -0.02   0.02   0.01     0.03   0.01   0.02
  13   6     0.04   0.04  -0.10     0.00  -0.04  -0.04    -0.00  -0.01   0.00
  14   1    -0.02  -0.04  -0.03     0.11   0.17   0.41     0.04   0.08   0.18
  15   1     0.05  -0.03   0.07    -0.06   0.14  -0.30    -0.02   0.06  -0.14
  16   1    -0.18   0.03  -0.00     0.10  -0.02  -0.13     0.02   0.01  -0.07
  17   1    -0.01   0.02  -0.09    -0.00  -0.01   0.24     0.17   0.05  -0.66
  18   1     0.04  -0.01  -0.28     0.01   0.06  -0.04     0.02   0.02  -0.09
  19   1     0.10   0.04  -0.32     0.01   0.02  -0.32    -0.11  -0.03   0.40
  20   1     0.00  -0.13   0.11     0.00   0.02  -0.06     0.00  -0.04  -0.01
  21   1     0.15   0.14  -0.09    -0.00  -0.03  -0.02     0.02  -0.04  -0.01
  22   1     0.03  -0.02   0.03    -0.03   0.02  -0.00    -0.01   0.01   0.00
  23   1     0.10   0.03   0.01     0.05   0.12  -0.13     0.06   0.10  -0.10
  24   7    -0.04  -0.05   0.04     0.01   0.03  -0.00    -0.01  -0.01   0.04
  25   8     0.05  -0.04  -0.01    -0.02   0.03  -0.00     0.01   0.00  -0.01
  26   8    -0.04   0.04  -0.02     0.02  -0.02   0.00    -0.01   0.00  -0.01
                     34                     35                     36
                        a                      a                      a 
 Frequencies --   922.2713               927.7584               961.4865
 Red. masses --     5.5529                 3.7945                 9.8544
 Frc consts  --     0.0000                 0.0000                 0.0000
 IR Inten    --    60.9389                 1.4077                10.8754
 Raman Activ --     0.0000                 0.0000                 0.0000
 Depolar     --     0.0000                 0.0000                 0.0000
 Atom AN      X      Y      Z        X      Y      Z        X      Y      Z
   1   8    -0.00  -0.01  -0.01    -0.00  -0.00   0.00     0.00  -0.02   0.00
   2   8    -0.02  -0.00  -0.00     0.00  -0.00   0.01    -0.05  -0.01  -0.01
   3   8    -0.06  -0.02  -0.02     0.01   0.00  -0.00     0.01  -0.00  -0.01
   4   7     0.12   0.03  -0.34    -0.01  -0.01   0.04    -0.07  -0.08   0.10
   5   6    -0.03   0.13   0.33     0.01  -0.00  -0.03     0.38  -0.02   0.01
   6   6     0.14  -0.20  -0.08    -0.02   0.03   0.00    -0.05   0.12  -0.06
   7   6    -0.07  -0.00  -0.07     0.01  -0.00   0.01    -0.16  -0.09  -0.10
   8   6    -0.07  -0.10   0.05    -0.04  -0.00   0.20    -0.21  -0.33  -0.06
   9   6     0.05   0.08   0.00     0.08   0.02  -0.37     0.15   0.44   0.09
  10   6    -0.03  -0.01  -0.02     0.02   0.01  -0.08    -0.18  -0.10  -0.05
  11   6     0.03  -0.03   0.02    -0.06  -0.01   0.23    -0.03   0.08  -0.00
  12   6    -0.05   0.05   0.03     0.01  -0.00   0.00     0.03   0.03   0.07
  13   6    -0.00  -0.02  -0.01    -0.00  -0.00   0.01    -0.00  -0.12  -0.01
  14   1    -0.09  -0.01   0.05     0.00  -0.00  -0.01     0.21  -0.06  -0.09
  15   1    -0.03  -0.01   0.19     0.02  -0.00  -0.01     0.10  -0.03   0.04
  16   1     0.03  -0.14   0.10    -0.01   0.02  -0.01    -0.11   0.06   0.04
  17   1    -0.00  -0.02  -0.13     0.07   0.02  -0.32    -0.14  -0.12  -0.05
  18   1     0.01   0.02   0.04    -0.14  -0.08   0.65     0.07   0.11  -0.00
  19   1    -0.02  -0.02  -0.03     0.09   0.03  -0.42    -0.24  -0.06  -0.06
  20   1     0.01   0.19   0.02    -0.00  -0.02  -0.01    -0.00  -0.07   0.04
  21   1     0.09   0.45  -0.15    -0.01  -0.04   0.02     0.01  -0.05   0.02
  22   1    -0.01   0.00   0.00     0.00   0.00  -0.01    -0.07   0.04  -0.01
  23   1    -0.17  -0.29   0.36     0.02   0.02  -0.03     0.03   0.02  -0.02
  24   7     0.02   0.03   0.01    -0.01  -0.00   0.02     0.08   0.11   0.03
  25   8    -0.03   0.03  -0.01     0.00  -0.00  -0.00    -0.09   0.12  -0.01
  26   8     0.06  -0.02   0.01    -0.00   0.00  -0.00     0.20  -0.06   0.04
                     37                     38                     39
                        a                      a                      a 
 Frequencies --  1015.2546              1049.2893              1081.4944
 Red. masses --     4.8531                 6.3114                 6.1557
 Frc consts  --     0.0000                 0.0000                 0.0000
 IR Inten    --   107.0332                20.0837               178.3625
 Raman Activ --     0.0000                 0.0000                 0.0000
 Depolar     --     0.0000                 0.0000                 0.0000
 Atom AN      X      Y      Z        X      Y      Z        X      Y      Z
   1   8     0.02   0.03   0.02    -0.03   0.03  -0.03     0.00  -0.00   0.00
   2   8    -0.01   0.00  -0.00     0.01   0.01   0.00     0.05   0.16   0.02
   3   8     0.01  -0.02   0.06     0.02  -0.01  -0.00    -0.00  -0.00   0.00
   4   7    -0.40  -0.02  -0.07    -0.06   0.30  -0.03    -0.01  -0.03   0.01
   5   6     0.01  -0.08  -0.11     0.10   0.26   0.01     0.00  -0.03   0.02
   6   6     0.20   0.15   0.16     0.06  -0.46   0.10     0.01   0.06  -0.03
   7   6     0.01  -0.02   0.03    -0.09   0.07   0.05    -0.02   0.03  -0.01
   8   6     0.03   0.04   0.00    -0.07  -0.13  -0.04     0.05  -0.24  -0.00
   9   6     0.00   0.02  -0.01     0.01  -0.03  -0.01    -0.04   0.14   0.00
  10   6     0.01  -0.01  -0.00    -0.06  -0.00  -0.01     0.06   0.24   0.03
  11   6    -0.01   0.03  -0.00     0.02  -0.07  -0.01    -0.03  -0.35  -0.03
  12   6    -0.08  -0.10  -0.12    -0.04   0.04   0.01    -0.00  -0.01  -0.00
  13   6    -0.00  -0.01   0.00     0.01   0.03   0.01    -0.04   0.27   0.02
  14   1     0.09  -0.01  -0.02    -0.40   0.01   0.00     0.03  -0.00   0.01
  15   1    -0.11   0.04  -0.03     0.38  -0.17   0.07    -0.01   0.01  -0.02
  16   1     0.25  -0.15   0.12     0.02  -0.09  -0.03     0.03   0.01  -0.02
  17   1     0.01   0.01   0.02    -0.10  -0.06  -0.01    -0.09  -0.10  -0.03
  18   1    -0.01   0.01   0.02     0.05  -0.06   0.02    -0.27   0.25  -0.03
  19   1    -0.02   0.00  -0.00     0.01  -0.02   0.01    -0.10  -0.13  -0.03
  20   1    -0.01  -0.32   0.28    -0.02  -0.09  -0.01     0.00  -0.01   0.01
  21   1     0.37   0.30  -0.24     0.08  -0.06  -0.04     0.00  -0.01   0.00
  22   1    -0.01   0.01  -0.00     0.05  -0.03   0.01     0.49  -0.35   0.08
  23   1     0.28   0.11   0.01     0.18   0.26  -0.22    -0.00  -0.01   0.01
  24   7     0.00   0.00   0.00     0.01   0.00   0.00     0.06  -0.03   0.01
  25   8     0.00  -0.01   0.00    -0.01   0.02  -0.00     0.06  -0.14   0.00
  26   8    -0.01   0.00  -0.00     0.04  -0.00   0.01    -0.17   0.03  -0.03
                     40                     41                     42
                        a                      a                      a 
 Frequencies --  1117.7321              1127.9192              1147.8989
 Red. masses --     7.4036                 6.4977                 3.5654
 Frc consts  --     0.0000                 0.0000                 0.0000
 IR Inten    --   108.8782               119.6998               244.6561
 Raman Activ --     0.0000                 0.0000                 0.0000
 Depolar     --     0.0000                 0.0000                 0.0000
 Atom AN      X      Y      Z        X      Y      Z        X      Y      Z
   1   8     0.02  -0.02   0.02     0.01  -0.02   0.02    -0.00  -0.02  -0.00
   2   8    -0.07   0.09  -0.01     0.11  -0.16   0.01     0.16  -0.12   0.03
   3   8    -0.02  -0.01   0.01    -0.00   0.00   0.00     0.02   0.00  -0.02
   4   7    -0.08  -0.17   0.12    -0.04  -0.09   0.08    -0.08  -0.01   0.03
   5   6     0.01   0.11   0.30    -0.11   0.12   0.18     0.05  -0.02   0.05
   6   6     0.07   0.24  -0.38     0.02   0.14  -0.26     0.18  -0.07  -0.11
   7   6    -0.10   0.09  -0.05     0.08  -0.04  -0.00    -0.11   0.05  -0.01
   8   6    -0.07  -0.01  -0.01     0.02  -0.05   0.00    -0.01  -0.14  -0.01
   9   6    -0.04  -0.10  -0.01     0.05   0.08   0.03    -0.11   0.11  -0.02
  10   6    -0.15  -0.26  -0.05     0.18   0.37   0.07    -0.07  -0.00  -0.02
  11   6     0.02  -0.01   0.01     0.01  -0.02   0.00     0.10  -0.07   0.02
  12   6    -0.02  -0.04  -0.02    -0.01  -0.04  -0.02    -0.04   0.05   0.06
  13   6     0.03   0.03   0.01    -0.04  -0.05  -0.01    -0.13   0.05  -0.03
  14   1    -0.09   0.03   0.08    -0.13   0.02   0.05     0.02  -0.00   0.01
  15   1     0.16  -0.03   0.04     0.06  -0.01   0.03    -0.08   0.02   0.05
  16   1     0.38  -0.04  -0.29     0.29  -0.06  -0.20    -0.20   0.14  -0.02
  17   1     0.26   0.09   0.06    -0.40  -0.15  -0.10     0.07  -0.02   0.01
  18   1     0.04  -0.07  -0.01     0.02   0.02  -0.00    -0.35   0.29  -0.04
  19   1     0.13   0.04   0.03    -0.10  -0.04  -0.03     0.60   0.20   0.15
  20   1     0.01  -0.07   0.04     0.01  -0.05   0.03    -0.01  -0.05   0.02
  21   1    -0.02  -0.09   0.04    -0.03  -0.07   0.03     0.04  -0.03  -0.01
  22   1     0.17  -0.13   0.03    -0.32   0.24  -0.05    -0.20   0.15  -0.03
  23   1     0.00  -0.01  -0.01    -0.00   0.00  -0.02     0.06   0.04  -0.02
  24   7     0.04   0.02   0.01    -0.06  -0.04  -0.02     0.01   0.04   0.01
  25   8    -0.06   0.13  -0.00     0.08  -0.17   0.00     0.01  -0.03  -0.00
  26   8     0.12  -0.03   0.02    -0.12   0.05  -0.02     0.02   0.00   0.00
                     43                     44                     45
                        a                      a                      a 
 Frequencies --  1154.2271              1185.9082              1211.1792
 Red. masses --     6.1760                 4.1502                 7.8916
 Frc consts  --     0.0000                 0.0000                 0.0000
 IR Inten    --     7.3783                26.0708               222.2125
 Raman Activ --     0.0000                 0.0000                 0.0000
 Depolar     --     0.0000                 0.0000                 0.0000
 Atom AN      X      Y      Z        X      Y      Z        X      Y      Z
   1   8     0.00  -0.03  -0.01     0.00  -0.01   0.00    -0.00  -0.00   0.00
   2   8    -0.07   0.05  -0.01     0.01  -0.01   0.00     0.23  -0.08   0.05
   3   8     0.02  -0.00  -0.04     0.02   0.01  -0.01    -0.00  -0.00  -0.00
   4   7    -0.16  -0.05   0.10    -0.07  -0.20  -0.07     0.00   0.01   0.01
   5   6    -0.09   0.05   0.11     0.06  -0.18  -0.10     0.10  -0.01   0.07
   6   6     0.43  -0.18  -0.34     0.15   0.29   0.15     0.01  -0.04  -0.00
   7   6     0.03  -0.05   0.04    -0.10   0.12   0.02    -0.33   0.05  -0.10
   8   6     0.03   0.10   0.01    -0.03  -0.05  -0.02     0.05  -0.01   0.01
   9   6     0.04  -0.03   0.00    -0.01  -0.05  -0.01    -0.04   0.06  -0.00
  10   6     0.06   0.03   0.01     0.06   0.06   0.02    -0.01   0.27   0.02
  11   6    -0.03   0.03  -0.01    -0.02  -0.07  -0.01    -0.02  -0.17  -0.01
  12   6    -0.07   0.10   0.12    -0.02   0.01   0.03    -0.00   0.01   0.00
  13   6     0.05  -0.02   0.01     0.01   0.02   0.00    -0.30   0.07  -0.06
  14   1    -0.05   0.01   0.03    -0.33   0.14   0.26     0.23  -0.04  -0.06
  15   1    -0.33   0.09   0.18     0.36  -0.09  -0.26     0.08  -0.03   0.02
  16   1    -0.39   0.28  -0.09    -0.27   0.37  -0.09    -0.00  -0.03   0.03
  17   1     0.02   0.03   0.01    -0.06  -0.03  -0.00     0.35   0.12   0.08
  18   1     0.12  -0.10   0.02     0.12  -0.11   0.02     0.36  -0.29   0.04
  19   1    -0.25  -0.08  -0.06     0.02  -0.01   0.01     0.01  -0.04  -0.00
  20   1    -0.02  -0.07   0.02    -0.00   0.01   0.03    -0.00   0.01  -0.01
  21   1     0.07  -0.07  -0.02     0.06   0.14  -0.07     0.01  -0.00   0.00
  22   1     0.07  -0.06   0.01    -0.01   0.01  -0.00    -0.06   0.05  -0.01
  23   1     0.12   0.08  -0.06    -0.05  -0.14   0.14     0.01   0.02  -0.01
  24   7    -0.00  -0.01  -0.00    -0.03  -0.03  -0.01     0.16   0.13   0.04
  25   8     0.00  -0.00   0.00     0.00   0.00   0.00     0.06  -0.22  -0.01
  26   8    -0.03   0.00  -0.01     0.01   0.00   0.00    -0.22   0.02  -0.04
                     46                     47                     48
                        a                      a                      a 
 Frequencies --  1240.9372              1245.7892              1259.8389
 Red. masses --    10.0168                 5.1471                 4.3436
 Frc consts  --     0.0000                 0.0000                 0.0000
 IR Inten    --   612.0825               295.9027               162.2159
 Raman Activ --     0.0000                 0.0000                 0.0000
 Depolar     --     0.0000                 0.0000                 0.0000
 Atom AN      X      Y      Z        X      Y      Z        X      Y      Z
   1   8    -0.00   0.01  -0.01    -0.01   0.04  -0.02     0.02  -0.12   0.09
   2   8     0.15   0.07   0.04     0.10  -0.12   0.01     0.02  -0.02   0.00
   3   8    -0.01  -0.01   0.01    -0.03  -0.02   0.02     0.17   0.08  -0.08
   4   7     0.00  -0.02  -0.00    -0.01  -0.05  -0.02     0.06   0.18  -0.03
   5   6    -0.08   0.01  -0.05    -0.02   0.06  -0.07     0.13  -0.12  -0.08
   6   6    -0.01   0.04  -0.01    -0.04   0.01   0.09     0.01   0.16  -0.26
   7   6     0.25  -0.16   0.06     0.18  -0.24   0.05    -0.03  -0.00   0.04
   8   6     0.22   0.04   0.05     0.03  -0.08  -0.00    -0.00  -0.03  -0.00
   9   6     0.00   0.18   0.02     0.12  -0.07   0.02     0.01  -0.02  -0.00
  10   6    -0.25  -0.25  -0.08    -0.30   0.04  -0.06    -0.02   0.03  -0.01
  11   6    -0.03   0.15   0.00     0.08   0.09   0.02     0.00  -0.02  -0.00
  12   6     0.02  -0.01   0.00     0.04  -0.01  -0.00    -0.18   0.00   0.01
  13   6    -0.36  -0.18  -0.10    -0.08   0.19  -0.01    -0.02   0.05  -0.00
  14   1    -0.19   0.04   0.06    -0.24   0.04   0.05    -0.30   0.10   0.20
  15   1    -0.06   0.01  -0.00     0.01  -0.02   0.03    -0.09   0.02   0.02
  16   1     0.00   0.01  -0.01     0.04   0.09  -0.15    -0.08  -0.29   0.48
  17   1    -0.26  -0.10  -0.06     0.43   0.12   0.11     0.10   0.03   0.03
  18   1     0.16  -0.08   0.03    -0.26   0.23  -0.03    -0.00  -0.00   0.00
  19   1     0.14   0.11   0.04    -0.37  -0.12  -0.09    -0.05  -0.02  -0.01
  20   1     0.00   0.02  -0.00    -0.01   0.04  -0.02     0.09  -0.31   0.20
  21   1    -0.00   0.01  -0.00     0.03   0.03  -0.02    -0.21  -0.13   0.11
  22   1     0.17  -0.13   0.03    -0.19   0.13  -0.03    -0.02   0.02  -0.00
  23   1    -0.01  -0.01   0.01     0.01  -0.01   0.01    -0.17  -0.04   0.03
  24   7     0.29   0.26   0.08     0.10   0.12   0.03    -0.00   0.00   0.00
  25   8     0.03  -0.11  -0.00     0.01  -0.10  -0.01     0.00  -0.01  -0.00
  26   8    -0.20  -0.01  -0.04    -0.03   0.01  -0.01     0.01   0.00   0.00
                     49                     50                     51
                        a                      a                      a 
 Frequencies --  1286.3379              1315.1821              1325.0796
 Red. masses --     9.3113                 5.0437                11.7151
 Frc consts  --     0.0000                 0.0000                 0.0000
 IR Inten    --   329.7782               352.2105               690.8485
 Raman Activ --     0.0000                 0.0000                 0.0000
 Depolar     --     0.0000                 0.0000                 0.0000
 Atom AN      X      Y      Z        X      Y      Z        X      Y      Z
   1   8    -0.03   0.25  -0.19    -0.02   0.05  -0.03    -0.01   0.08  -0.06
   2   8    -0.02  -0.00  -0.00     0.06   0.00   0.01    -0.21   0.05  -0.04
   3   8    -0.37  -0.21   0.18     0.03  -0.00   0.00    -0.03  -0.04   0.03
   4   7    -0.00  -0.06   0.10     0.03   0.03  -0.11     0.01   0.06  -0.07
   5   6     0.21  -0.10  -0.06     0.34  -0.02  -0.15     0.14   0.01   0.00
   6   6    -0.06   0.09  -0.17    -0.16  -0.09   0.21     0.00  -0.04   0.07
   7   6    -0.09   0.05   0.02    -0.04  -0.01   0.03    -0.21   0.01  -0.04
   8   6    -0.05  -0.01  -0.01     0.02  -0.03  -0.00    -0.20   0.14  -0.04
   9   6    -0.01   0.01  -0.00    -0.02   0.09  -0.00     0.00  -0.11  -0.01
  10   6     0.06   0.03   0.01     0.03   0.13   0.01     0.23  -0.21   0.04
  11   6    -0.01  -0.04  -0.01    -0.06  -0.04  -0.02     0.07   0.02   0.02
  12   6     0.43  -0.06   0.03     0.02  -0.03   0.02     0.07  -0.04   0.03
  13   6     0.05   0.01   0.01    -0.08  -0.05  -0.02     0.28  -0.05   0.06
  14   1    -0.25   0.09   0.18    -0.18   0.07   0.10     0.01  -0.00   0.00
  15   1    -0.19   0.04   0.10    -0.40   0.08   0.28    -0.01  -0.00   0.05
  16   1    -0.01  -0.16   0.23     0.17   0.16  -0.41     0.02   0.08  -0.13
  17   1     0.01   0.01   0.01     0.03   0.00   0.02    -0.08   0.04  -0.01
  18   1     0.03  -0.03   0.01     0.11  -0.07   0.02    -0.13   0.08  -0.02
  19   1     0.04   0.00   0.01     0.09   0.03   0.02    -0.01  -0.01  -0.00
  20   1    -0.06   0.22  -0.16     0.04  -0.17   0.16     0.04  -0.20   0.14
  21   1     0.14  -0.03  -0.04    -0.14   0.06   0.03    -0.11  -0.00   0.04
  22   1    -0.02   0.01  -0.00     0.06  -0.03   0.01    -0.08   0.03  -0.02
  23   1     0.17   0.07  -0.02    -0.15  -0.06  -0.01    -0.13  -0.05   0.02
  24   7    -0.00   0.01   0.00    -0.13  -0.16  -0.04     0.32   0.36   0.09
  25   8     0.01  -0.02   0.00    -0.03   0.09   0.00     0.08  -0.25  -0.00
  26   8    -0.02   0.00  -0.00     0.11  -0.00   0.02    -0.34   0.01  -0.07
                     52                     53                     54
                        a                      a                      a 
 Frequencies --  1330.8102              1366.2602              1392.4179
 Red. masses --     8.2959                11.0289                 1.8970
 Frc consts  --     0.0000                 0.0000                 0.0000
 IR Inten    --   413.0498                76.7466               142.0075
 Raman Activ --     0.0000                 0.0000                 0.0000
 Depolar     --     0.0000                 0.0000                 0.0000
 Atom AN      X      Y      Z        X      Y      Z        X      Y      Z
   1   8    -0.04   0.27  -0.21    -0.00   0.00  -0.00     0.00  -0.00   0.00
   2   8     0.06  -0.02   0.01    -0.14   0.10  -0.03    -0.02   0.00  -0.00
   3   8    -0.24  -0.17   0.14    -0.01  -0.00   0.00    -0.01  -0.02  -0.02
   4   7     0.01   0.14  -0.09    -0.01   0.01   0.00     0.05  -0.24  -0.03
   5   6    -0.23   0.05   0.09     0.03   0.04   0.02     0.00  -0.01   0.02
   6   6     0.15  -0.04  -0.03     0.01   0.02  -0.02     0.04   0.00  -0.03
   7   6     0.10  -0.00  -0.00    -0.19  -0.40  -0.07    -0.01  -0.01   0.00
   8   6     0.07  -0.04   0.01     0.13   0.18   0.04     0.01  -0.00   0.00
   9   6     0.00   0.02   0.00    -0.23   0.13  -0.04    -0.03   0.01  -0.01
  10   6    -0.10   0.04  -0.02    -0.01   0.35   0.02    -0.02   0.02  -0.00
  11   6    -0.01   0.00   0.00     0.34   0.16   0.09     0.04  -0.00   0.01
  12   6     0.36  -0.12   0.08     0.01  -0.00   0.00     0.01   0.01   0.01
  13   6    -0.09   0.03  -0.02     0.06  -0.50  -0.02     0.03  -0.02   0.01
  14   1     0.15  -0.06  -0.10    -0.06   0.01   0.02    -0.03  -0.03  -0.03
  15   1     0.17  -0.03  -0.12     0.15  -0.06  -0.02     0.01   0.02  -0.05
  16   1    -0.10   0.06   0.02    -0.01  -0.01   0.03    -0.03  -0.02   0.06
  17   1     0.01  -0.02  -0.00     0.11   0.08   0.03     0.01   0.00   0.00
  18   1     0.02  -0.01  -0.00    -0.11   0.07  -0.02    -0.01   0.00  -0.00
  19   1    -0.02  -0.00  -0.01     0.03   0.01   0.01     0.00  -0.01  -0.00
  20   1     0.07  -0.42   0.25    -0.00  -0.01  -0.03     0.04   0.35   0.48
  21   1    -0.19  -0.02   0.07     0.03  -0.03  -0.01    -0.40   0.40   0.13
  22   1     0.01  -0.00   0.00     0.14  -0.11   0.02    -0.00   0.00  -0.00
  23   1    -0.22  -0.07   0.02     0.00  -0.01   0.02     0.10   0.21  -0.42
  24   7    -0.08  -0.09  -0.02    -0.01  -0.11  -0.01     0.00   0.01   0.00
  25   8    -0.02   0.07   0.00    -0.02   0.02  -0.00     0.00  -0.01  -0.00
  26   8     0.10  -0.00   0.02    -0.01   0.01  -0.00    -0.00   0.00   0.00
                     55                     56                     57
                        a                      a                      a 
 Frequencies --  1395.0343              1404.3413              1463.5997
 Red. masses --     2.1124                10.4977                 6.3365
 Frc consts  --     0.0000                 0.0000                 0.0000
 IR Inten    --   161.9099               105.5298               135.2223
 Raman Activ --     0.0000                 0.0000                 0.0000
 Depolar     --     0.0000                 0.0000                 0.0000
 Atom AN      X      Y      Z        X      Y      Z        X      Y      Z
   1   8     0.00  -0.02   0.01    -0.00  -0.00   0.00    -0.00   0.00  -0.00
   2   8     0.00   0.01   0.00    -0.10  -0.05  -0.03     0.12  -0.02   0.03
   3   8    -0.01   0.02   0.02     0.01   0.01   0.00    -0.01  -0.01   0.00
   4   7     0.08  -0.08   0.24     0.01   0.00   0.02     0.01  -0.02   0.02
   5   6     0.01   0.00   0.02     0.06  -0.07  -0.01    -0.05  -0.01  -0.14
   6   6     0.04   0.02  -0.03    -0.01  -0.01   0.01     0.00   0.00  -0.02
   7   6     0.01  -0.03   0.00    -0.10   0.26  -0.00    -0.24   0.07  -0.06
   8   6    -0.05   0.00  -0.01     0.39  -0.03   0.08     0.10   0.11   0.03
   9   6     0.03   0.01   0.01    -0.37  -0.04  -0.09     0.10  -0.19   0.01
  10   6     0.05   0.01   0.01    -0.42  -0.03  -0.10     0.15  -0.18   0.02
  11   6    -0.04   0.01  -0.01     0.40  -0.12   0.08     0.19   0.14   0.06
  12   6    -0.01   0.01  -0.02    -0.01   0.00  -0.00     0.02   0.00   0.00
  13   6    -0.01  -0.02  -0.00     0.21   0.16   0.06    -0.35   0.07  -0.07
  14   1    -0.05  -0.02  -0.02     0.06  -0.00   0.01     0.27   0.26   0.29
  15   1    -0.01   0.02  -0.02    -0.10   0.04   0.02     0.12  -0.28   0.35
  16   1    -0.01  -0.02   0.04     0.01   0.01  -0.02     0.00  -0.01   0.01
  17   1     0.03   0.02   0.01    -0.20  -0.11  -0.05    -0.15  -0.03  -0.04
  18   1    -0.00   0.02  -0.00     0.03  -0.13  -0.00    -0.15   0.09  -0.02
  19   1     0.02   0.02   0.01    -0.11  -0.13  -0.04    -0.17  -0.04  -0.04
  20   1    -0.03  -0.29  -0.47    -0.00  -0.05  -0.07    -0.00  -0.00   0.01
  21   1     0.09   0.48  -0.04     0.02   0.04  -0.01    -0.02   0.05   0.01
  22   1     0.01  -0.01   0.00    -0.11   0.06  -0.02     0.02  -0.01   0.00
  23   1    -0.42   0.08  -0.42    -0.06  -0.01  -0.03    -0.01   0.03  -0.06
  24   7     0.01  -0.01   0.00    -0.02   0.10   0.00     0.03  -0.14  -0.01
  25   8    -0.00   0.00   0.00     0.02  -0.06  -0.00    -0.04   0.14   0.00
  26   8    -0.01  -0.00  -0.00     0.07   0.00   0.01    -0.02  -0.00  -0.00
                     58                     59                     60
                        a                      a                      a 
 Frequencies --  1467.2188              1525.2052              1536.2082
 Red. masses --     6.5219                14.1687                11.6334
 Frc consts  --     0.0000                 0.0000                 0.0000
 IR Inten    --   157.8901               708.2233                71.3474
 Raman Activ --     0.0000                 0.0000                 0.0000
 Depolar     --     0.0000                 0.0000                 0.0000
 Atom AN      X      Y      Z        X      Y      Z        X      Y      Z
   1   8     0.00  -0.01   0.00     0.00  -0.00   0.00    -0.00   0.00  -0.00
   2   8    -0.12   0.02  -0.02    -0.03  -0.02  -0.01     0.01  -0.05  -0.00
   3   8     0.00   0.00  -0.00     0.00   0.00  -0.00    -0.00  -0.00  -0.00
   4   7     0.00  -0.01   0.01     0.00   0.00  -0.00    -0.00  -0.00  -0.00
   5   6    -0.21   0.02  -0.19    -0.03  -0.01  -0.01    -0.00   0.05   0.01
   6   6     0.00   0.01  -0.01    -0.00  -0.00   0.00    -0.00   0.00  -0.00
   7   6     0.27  -0.08   0.04     0.12   0.06   0.03    -0.03  -0.51  -0.05
   8   6    -0.08  -0.09  -0.02    -0.06  -0.09  -0.02     0.05   0.26   0.03
   9   6    -0.08   0.17  -0.00    -0.08   0.05  -0.02    -0.25   0.35  -0.03
  10   6    -0.15   0.14  -0.02    -0.08   0.07  -0.01     0.22  -0.31   0.03
  11   6    -0.20  -0.13  -0.05     0.01  -0.05  -0.00     0.03  -0.23  -0.01
  12   6    -0.00   0.00  -0.00    -0.00  -0.00  -0.00     0.00  -0.00   0.00
  13   6     0.33  -0.05   0.07     0.13   0.03   0.03     0.02   0.45   0.04
  14   1     0.25   0.28   0.30     0.00   0.00  -0.00    -0.06  -0.00  -0.00
  15   1     0.11  -0.30   0.36    -0.02   0.01  -0.00     0.07  -0.03  -0.01
  16   1    -0.01  -0.01   0.02    -0.00  -0.00   0.00    -0.00   0.00  -0.00
  17   1     0.11   0.01   0.02     0.02  -0.02   0.00    -0.05   0.05  -0.01
  18   1     0.11  -0.06   0.02     0.04  -0.04   0.01     0.10  -0.04   0.01
  19   1     0.15   0.04   0.04     0.02  -0.01   0.00     0.03  -0.06   0.00
  20   1     0.00  -0.00   0.00     0.00  -0.00  -0.00     0.00   0.00   0.00
  21   1    -0.01   0.02   0.00     0.00  -0.00  -0.00     0.00  -0.00  -0.00
  22   1    -0.02   0.01  -0.00    -0.11   0.07  -0.02    -0.09   0.06  -0.02
  23   1    -0.01   0.01  -0.03     0.00  -0.00   0.00     0.00  -0.00   0.00
  24   7    -0.03   0.14   0.01     0.59  -0.50   0.08    -0.06  -0.07  -0.02
  25   8     0.04  -0.13  -0.00    -0.17   0.38  -0.01    -0.02   0.09   0.00
  26   8     0.02   0.00   0.00    -0.34   0.07  -0.07     0.04  -0.01   0.01
                     61                     62                     63
                        a                      a                      a 
 Frequencies --  1600.9011              1738.1211              2539.1680
 Red. masses --    11.6097                12.9089                 1.8288
 Frc consts  --     0.0000                 0.0000                 0.0000
 IR Inten    --   104.9060               759.0157               809.2762
 Raman Activ --     0.0000                 0.0000                 0.0000
 Depolar     --     0.0000                 0.0000                 0.0000
 Atom AN      X      Y      Z        X      Y      Z        X      Y      Z
   1   8     0.00  -0.00   0.00    -0.02   0.35  -0.26     0.00   0.01  -0.01
   2   8     0.03   0.01   0.01     0.00  -0.00   0.00    -0.00   0.00  -0.00
   3   8     0.00   0.00  -0.00     0.22   0.16  -0.14     0.01   0.02  -0.02
   4   7     0.00   0.00  -0.00    -0.01  -0.01   0.01     0.24  -0.01  -0.01
   5   6    -0.05  -0.01  -0.02     0.00  -0.00   0.00     0.00  -0.00   0.00
   6   6    -0.01   0.00   0.01     0.00   0.02  -0.01     0.02   0.02  -0.02
   7   6     0.36   0.18   0.09    -0.00   0.00  -0.00     0.00   0.00   0.00
   8   6    -0.45  -0.20  -0.12    -0.00  -0.00  -0.00     0.00   0.00  -0.00
   9   6    -0.39   0.12  -0.08     0.00  -0.00   0.00     0.00  -0.00   0.00
  10   6     0.27  -0.07   0.05     0.00   0.00   0.00    -0.00  -0.00  -0.00
  11   6     0.45   0.06   0.11    -0.00   0.00   0.00    -0.00  -0.00  -0.00
  12   6     0.00  -0.00  -0.00    -0.24  -0.63   0.49    -0.03  -0.02   0.02
  13   6    -0.22  -0.05  -0.05    -0.00  -0.00  -0.00     0.00  -0.00   0.00
  14   1     0.01   0.01   0.01     0.01  -0.00  -0.00    -0.00   0.00  -0.00
  15   1    -0.04   0.01   0.01     0.00  -0.00   0.00    -0.00   0.00  -0.00
  16   1     0.00  -0.00   0.00     0.02  -0.03   0.02     0.01   0.00   0.00
  17   1     0.11   0.02   0.02     0.00   0.00   0.00    -0.00   0.00  -0.00
  18   1     0.05  -0.10   0.00    -0.00   0.00  -0.00     0.00  -0.00  -0.00
  19   1    -0.08  -0.06  -0.02    -0.00   0.00  -0.00     0.00  -0.00   0.00
  20   1    -0.00  -0.00  -0.00     0.02   0.11  -0.08    -0.95  -0.11   0.14
  21   1     0.00  -0.00  -0.00     0.02   0.02  -0.01     0.01  -0.01  -0.01
  22   1     0.03  -0.03   0.01    -0.00   0.00   0.00     0.00  -0.00   0.00
  23   1     0.00  -0.00   0.00     0.01   0.01  -0.02     0.02   0.01   0.01
  24   7    -0.05   0.07  -0.01    -0.00  -0.00  -0.00     0.00   0.00   0.00
  25   8     0.02  -0.04   0.00    -0.00   0.00  -0.00     0.00  -0.00  -0.00
  26   8     0.01  -0.01   0.00     0.00   0.00   0.00    -0.00  -0.00  -0.00
                     64                     65                     66
                        a                      a                      a 
 Frequencies --  2996.1898              3003.5245              3008.5511
 Red. masses --     1.9242                 1.6170                 1.7206
 Frc consts  --     0.0000                 0.0000                 0.0000
 IR Inten    --     2.8316                11.9446                35.7004
 Raman Activ --     0.0000                 0.0000                 0.0000
 Depolar     --     0.0000                 0.0000                 0.0000
 Atom AN      X      Y      Z        X      Y      Z        X      Y      Z
   1   8    -0.00   0.00  -0.00    -0.00  -0.00   0.00    -0.00   0.00  -0.00
   2   8     0.00   0.00   0.00    -0.00   0.00  -0.00    -0.00  -0.00  -0.00
   3   8    -0.00  -0.00   0.00    -0.00  -0.00   0.00    -0.00  -0.00   0.00
   4   7     0.00   0.00  -0.00     0.00  -0.00  -0.00     0.00   0.00  -0.00
   5   6    -0.05  -0.26   0.05    -0.06   0.06  -0.14     0.09   0.11   0.12
   6   6     0.05   0.07   0.06     0.08   0.12   0.08     0.08   0.13   0.09
   7   6     0.00  -0.01   0.00    -0.00   0.00  -0.00     0.00   0.00   0.00
   8   6    -0.00   0.00  -0.00     0.00  -0.00   0.00    -0.00  -0.00  -0.00
   9   6     0.00   0.00   0.00     0.00  -0.00  -0.00    -0.00  -0.00  -0.00
  10   6     0.00  -0.00   0.00    -0.00  -0.00   0.00    -0.00   0.00  -0.00
  11   6    -0.00  -0.00  -0.00     0.00  -0.00   0.00     0.00   0.00   0.00
  12   6     0.00   0.00   0.00     0.00   0.00   0.00     0.00   0.00   0.00
  13   6     0.00   0.00   0.00     0.00  -0.00   0.00    -0.00  -0.00  -0.00
  14   1    -0.06   0.54  -0.42     0.05  -0.52   0.38    -0.01   0.17  -0.10
  15   1     0.23   0.40   0.25     0.16   0.31   0.16    -0.30  -0.56  -0.31
  16   1    -0.19  -0.29  -0.20    -0.29  -0.45  -0.31    -0.30  -0.46  -0.31
  17   1     0.00  -0.01   0.00    -0.00   0.01  -0.00    -0.00   0.00  -0.00
  18   1    -0.00  -0.00  -0.00    -0.00  -0.00  -0.00     0.01   0.00   0.00
  19   1     0.00   0.00   0.00    -0.00   0.00   0.00     0.00  -0.00   0.00
  20   1    -0.00   0.00  -0.00    -0.01   0.00   0.00    -0.00   0.00   0.00
  21   1     0.00  -0.00   0.00     0.00  -0.00   0.00     0.00   0.00   0.01
  22   1    -0.00  -0.00  -0.00    -0.00  -0.00  -0.00     0.00   0.00   0.00
  23   1     0.00   0.00  -0.00    -0.00   0.01   0.00    -0.00   0.01   0.01
  24   7     0.00  -0.00  -0.00     0.00   0.00   0.00    -0.00  -0.00  -0.00
  25   8    -0.00   0.00   0.00    -0.00  -0.00   0.00     0.00   0.00   0.00
  26   8    -0.00  -0.00   0.00    -0.00   0.00  -0.00     0.00   0.00   0.00
                     67                     68                     69
                        a                      a                      a 
 Frequencies --  3098.2625              3101.1029              3122.4019
 Red. masses --     1.8243                 1.8328                 1.8641
 Frc consts  --     0.0000                 0.0000                 0.0000
 IR Inten    --     3.3850                 2.1930                 4.0131
 Raman Activ --     0.0000                 0.0000                 0.0000
 Depolar     --     0.0000                 0.0000                 0.0000
 Atom AN      X      Y      Z        X      Y      Z        X      Y      Z
   1   8    -0.00   0.00  -0.00     0.00  -0.00  -0.00    -0.00   0.00  -0.00
   2   8    -0.00  -0.00  -0.00     0.00   0.00   0.00    -0.01  -0.01  -0.00
   3   8    -0.00  -0.00   0.00    -0.00  -0.00   0.00    -0.00  -0.00   0.00
   4   7     0.00  -0.00   0.00     0.00  -0.00   0.00    -0.00   0.00   0.00
   5   6     0.00   0.00   0.00    -0.00  -0.00   0.00    -0.00   0.00  -0.00
   6   6     0.00   0.00   0.00    -0.00  -0.00  -0.00     0.00   0.00   0.00
   7   6     0.01  -0.00   0.00     0.01  -0.00   0.00     0.00  -0.00   0.00
   8   6    -0.01   0.03  -0.00     0.08  -0.26   0.00     0.00  -0.00   0.00
   9   6     0.16   0.20   0.06     0.02   0.03   0.01     0.04   0.05   0.01
  10   6    -0.00   0.00  -0.00    -0.00  -0.01  -0.00     0.00  -0.00   0.00
  11   6     0.02  -0.04   0.00     0.00  -0.01  -0.00    -0.10   0.25  -0.00
  12   6     0.00  -0.00   0.00     0.00   0.00  -0.00     0.00  -0.00   0.00
  13   6     0.00  -0.00  -0.00     0.00   0.00   0.00    -0.01   0.00  -0.00
  14   1     0.00  -0.00   0.00    -0.00   0.01  -0.01    -0.00  -0.00   0.00
  15   1    -0.01  -0.01  -0.00     0.00   0.00   0.00    -0.00   0.00  -0.00
  16   1    -0.00  -0.00  -0.00     0.00   0.00   0.00    -0.00  -0.00  -0.00
  17   1     0.04  -0.12   0.00    -0.30   0.90  -0.01    -0.00   0.00  -0.00
  18   1    -0.57  -0.71  -0.20    -0.08  -0.10  -0.03    -0.11  -0.14  -0.04
  19   1    -0.07   0.18  -0.00    -0.01   0.03  -0.00     0.33  -0.88   0.00
  20   1     0.00  -0.00  -0.00     0.00  -0.00  -0.00     0.00  -0.00  -0.00
  21   1    -0.00   0.00  -0.00    -0.00  -0.00  -0.00     0.00   0.00   0.00
  22   1     0.00   0.00   0.00    -0.00  -0.00  -0.00     0.03   0.04   0.01
  23   1    -0.00  -0.00   0.00    -0.00   0.00   0.00    -0.00  -0.00  -0.00
  24   7    -0.00   0.00   0.00     0.00  -0.00   0.00     0.00   0.00   0.00
  25   8     0.00  -0.00   0.00    -0.00   0.00  -0.00    -0.00   0.00   0.00
  26   8    -0.00   0.00  -0.00     0.00  -0.00   0.00    -0.00   0.00  -0.00
                     70                     71                     72
                        a                      a                      a 
 Frequencies --  3156.9268              3306.9337              3322.1493
 Red. masses --     1.8613                 1.7821                 1.8191
 Frc consts  --     0.0000                 0.0000                 0.0000
 IR Inten    --   411.4781                96.1618               131.5848
 Raman Activ --     0.0000                 0.0000                 0.0000
 Depolar     --     0.0000                 0.0000                 0.0000
 Atom AN      X      Y      Z        X      Y      Z        X      Y      Z
   1   8    -0.00  -0.00  -0.00    -0.00   0.00  -0.00    -0.00   0.00  -0.00
   2   8     0.13   0.19   0.04     0.00   0.00   0.00     0.00   0.00   0.00
   3   8    -0.00  -0.00   0.00    -0.00   0.00  -0.00    -0.00   0.00  -0.00
   4   7    -0.00   0.00   0.00     0.07  -0.21  -0.11     0.09   0.02   0.23
   5   6     0.00   0.00   0.00     0.00   0.00   0.00     0.00   0.00   0.00
   6   6    -0.00   0.00  -0.00    -0.00  -0.01  -0.00     0.00   0.00   0.00
   7   6     0.00   0.00   0.00    -0.00   0.00  -0.00    -0.00   0.00  -0.00
   8   6    -0.00  -0.00  -0.00     0.00   0.00  -0.00    -0.00   0.00   0.00
   9   6     0.01   0.00   0.00    -0.00   0.00   0.00    -0.00   0.00   0.00
  10   6     0.00   0.01   0.00    -0.00   0.00  -0.00     0.00   0.00   0.00
  11   6    -0.01   0.01  -0.00    -0.00  -0.00   0.00     0.00   0.00   0.00
  12   6     0.00  -0.00   0.00     0.00  -0.00   0.00     0.00  -0.00   0.00
  13   6     0.02  -0.00   0.01     0.00  -0.00  -0.00    -0.00  -0.00  -0.00
  14   1     0.00   0.00  -0.00     0.00   0.00  -0.00     0.00   0.00  -0.00
  15   1    -0.00  -0.00  -0.00    -0.00   0.00   0.00    -0.00  -0.00  -0.00
  16   1    -0.00  -0.00  -0.00     0.01   0.01   0.00    -0.00  -0.00  -0.01
  17   1     0.00  -0.00  -0.00     0.00  -0.00   0.00     0.00  -0.00  -0.00
  18   1    -0.01  -0.01  -0.00     0.00  -0.00  -0.00     0.00   0.00   0.00
  19   1     0.02  -0.05   0.00     0.00  -0.00   0.00     0.00  -0.00   0.00
  20   1    -0.00   0.00   0.00     0.03  -0.02  -0.01     0.03  -0.00   0.01
  21   1     0.00   0.00   0.00     0.00  -0.02  -0.03    -0.38  -0.09  -0.88
  22   1    -0.58  -0.75  -0.18    -0.00  -0.00  -0.00    -0.00  -0.00  -0.00
  23   1     0.00  -0.00  -0.00    -0.29   0.81   0.44     0.01  -0.01   0.01
  24   7    -0.02  -0.01  -0.00     0.00  -0.00   0.00    -0.00  -0.00  -0.00
  25   8     0.00   0.00   0.00     0.00   0.00   0.00     0.00   0.00   0.00
  26   8     0.01  -0.00   0.00     0.00   0.00   0.00     0.00   0.00   0.00
