26
 energy: -50.491483894782 gnorm: 0.000806752648 xtb: 6.4.1 (afa7bdf)
O        -3.92893387787977    1.64978896254180   -0.71054166925150
O         3.78437830275672   -1.37225159314521    0.20060652941944
O        -4.77555131147256    0.01498885420765    0.56940721984511
N        -2.64071342176778   -1.07590129863479    1.22581470166262
C        -1.64684785742135   -0.22281580671076   -0.90544820143890
C        -2.40826764167290    0.10855531318087    0.37583169088595
C        -0.19513337084845   -0.50192528264494   -0.63491365189134
C         0.67540836014716    0.52841148526107   -0.36458938845643
C         0.30483638438822   -1.81169824138055   -0.62348352019614
C         2.02737376233815    0.28631665660915   -0.07715201709185
C         1.62464217713033   -2.07133897861325   -0.34323822330642
C        -3.85780016184983    0.66699366761800    0.02628956171393
C         2.52809548052307   -1.03744375090782   -0.06127728524874
H        -1.74955588905486    0.64284265146806   -1.56269508075390
H        -2.11907408129253   -1.07183819901064   -1.40021724374833
H        -1.89054790456555    0.89657406107619    0.92366661321217
H         0.33930456779798    1.55441454372818   -0.37488756255778
H        -0.35030031091205   -2.63674967724779   -0.85624799178614
H         2.01114888198033   -3.07721060210031   -0.33629375178222
H        -3.71306967237990   -1.05373278710600    1.27840697518490
H        -2.23923281178568   -1.00472760393061    2.16193649405981
H         4.33661431811831   -0.57617653166423    0.37210035250238
H        -2.33401148916331   -1.94193514371600    0.77724106451808
N         2.85153626410387    1.39227011921578    0.18365740939986
O         2.37162451554444    2.51713365351244    0.17423965308791
O         4.05019243716809    1.19935865032580    0.41952851997940
