      -----------------------------------------------------------      
     |                   =====================                   |     
     |                           x T B                           |     
     |                   =====================                   |     
     |                         S. Grimme                         |     
     |          Mulliken Center for Theoretical Chemistry        |     
     |                    University of Bonn                     |     
      -----------------------------------------------------------      

   * xtb version 6.4.1 (afa7bdf) compiled by 'ehlert@majestix' on 2021-06-10

   xtb is free software: you can redistribute it and/or modify it under
   the terms of the GNU Lesser General Public License as published by
   the Free Software Foundation, either version 3 of the License, or
   (at your option) any later version.
   
   xtb is distributed in the hope that it will be useful,
   but WITHOUT ANY WARRANTY; without even the implied warranty of
   MERCHANTABILITY or FITNESS FOR A PARTICULAR PURPOSE.  See the
   GNU Lesser General Public License for more details.
   
   Cite this work as:
   * C. Bannwarth, E. Caldeweyher, S. Ehlert, A. Hansen, P. Pracht,
     J. Seibert, S. Spicher, S. Grimme, WIREs Comput. Mol. Sci., 2020, 11,
     e01493. DOI: 10.1002/wcms.1493
   
   for GFN2-xTB:
   * C. Bannwarth, S. Ehlert and S. Grimme., J. Chem. Theory Comput., 2019,
     15, 1652-1671. DOI: 10.1021/acs.jctc.8b01176
   for GFN1-xTB:
   * S. Grimme, C. Bannwarth, P. Shushkov, J. Chem. Theory Comput., 2017,
     13, 1989-2009. DOI: 10.1021/acs.jctc.7b00118
   for GFN0-xTB:
   * P. Pracht, E. Caldeweyher, S. Ehlert, S. Grimme, ChemRxiv, 2019, preprint.
     DOI: 10.26434/chemrxiv.8326202.v1
   for GFN-FF:
   * S. Spicher and S. Grimme, Angew. Chem. Int. Ed., 2020, 59, 15665-15673.
     DOI: 10.1002/anie.202004239
   
   for DFT-D4:
   * E. Caldeweyher, C. Bannwarth and S. Grimme, J. Chem. Phys., 2017,
     147, 034112. DOI: 10.1063/1.4993215
   * E. Caldeweyher, S. Ehlert, A. Hansen, H. Neugebauer, S. Spicher,
     C. Bannwarth and S. Grimme, J. Chem. Phys., 2019, 150, 154122.
     DOI: 10.1063/1.5090222
   * E. Caldeweyher, J.-M. Mewes, S. Ehlert and S. Grimme, Phys. Chem. Chem. Phys.
     2020, 22, 8499-8512. DOI: 10.1039/D0CP00502A
   
   for sTDA-xTB:
   * S. Grimme and C. Bannwarth, J. Chem. Phys., 2016, 145, 054103.
     DOI: 10.1063/1.4959605
   
   in the mass-spec context:
   * V. Asgeirsson, C. Bauer and S. Grimme, Chem. Sci., 2017, 8, 4879.
     DOI: 10.1039/c7sc00601b
   * J. Koopman and S. Grimme, ACS Omega 2019, 4, 12, 15120-15133.
     DOI: 10.1021/acsomega.9b02011
   
   for metadynamics refer to:
   * S. Grimme, J. Chem. Theory Comput., 2019, 155, 2847-2862
     DOI: 10.1021/acs.jctc.9b00143
   
   for SPH calculations refer to:
   * S. Spicher and S. Grimme, J. Chem. Theory Comput., 2021, 17, 1701-1714
     DOI: 10.1021/acs.jctc.0c01306
   
   with help from (in alphabetical order)
   P. Atkinson, C. Bannwarth, F. Bohle, G. Brandenburg, E. Caldeweyher
   M. Checinski, S. Dohm, S. Ehlert, S. Ehrlich, I. Gerasimov, J. Koopman
   C. Lavigne, S. Lehtola, F. März, M. Müller, F. Musil, H. Neugebauer
   J. Pisarek, C. Plett, P. Pracht, J. Seibert, P. Shushkov, S. Spicher
   M. Stahn, M. Steiner, T. Strunk, J. Stückrath, T. Rose, and J. Unsleber
   
 * started run on 2021/11/15 at 09:36:11.556     

           -------------------------------------------------
          |                Calculation Setup                |
           -------------------------------------------------

          program call               : xtb 09_4-methoxyphenol.xyz --gfn2 --chrg 0 --uhf 0 --alpb water --ohess -P 1
          coordinate file            : 09_4-methoxyphenol.xyz
          omp threads                :                     1
          number of atoms            :                    17
          number of electrons        :                    48
          charge                     :                     0
          spin                       :                   0.0
          first test random number   :      0.18840156915324

   ID    Z sym.   atoms
    1    6 C      1-6, 14
    2    1 H      7, 8, 10-12, 15-17
    3    8 O      9, 13

           -------------------------------------------------
          |                 G F N 2 - x T B                 |
           -------------------------------------------------

        Reference                      10.1021/acs.jctc.8b01176
      * Hamiltonian:
        H0-scaling (s, p, d)           1.850000    2.230000    2.230000
        zeta-weighting                 0.500000
      * Dispersion:
        s8                             2.700000
        a1                             0.520000
        a2                             5.000000
        s9                             5.000000
      * Repulsion:
        kExp                           1.500000    1.000000
        rExp                           1.000000
      * Coulomb:
        alpha                          2.000000
        third order                    shell-resolved
        anisotropic                    true
        a3                             3.000000
        a5                             4.000000
        cn-shift                       1.200000
        cn-exp                         4.000000
        max-rad                        5.000000

      * Solvation model:               ALPB
        Solvent                        water
        Parameter file                 internal GFN2-xTB/ALPB
        Dielectric constant                8.0200E+01
        Reference state                gsolv [1 M gas/solution]
        Free energy shift                  1.0808E-03 Eh       6.7819E-01 kcal/mol
        Temperature                        2.9815E+02 K
        Density                            1.0000E+00 kg/L
        Solvent mass                       1.8000E+01 g/mol
        Interaction kernel             P16
        Born radius scaling (c1)           1.4744E+00
        Born radii integrator          GBOBC
        Born offset                        0.0000E+00 a0       0.0000E+00 AA
        H-bond correction              true
        Ion screening                  false
        Surface tension                    1.0000E-05 Eh       1.5569E+01 dyn/cm
        Grid points                               230 per atom

          ...................................................
          :                      SETUP                      :
          :.................................................:
          :  # basis functions                  44          :
          :  # atomic orbitals                  44          :
          :  # shells                           26          :
          :  # electrons                        48          :
          :  max. iterations                   250          :
          :  Hamiltonian                  GFN2-xTB          :
          :  restarted?                      false          :
          :  GBSA solvation                   true          :
          :  PC potential                    false          :
          :  electronic temp.          300.0000000     K    :
          :  accuracy                    1.0000000          :
          :  -> integral cutoff          0.2500000E+02      :
          :  -> integral neglect         0.1000000E-07      :
          :  -> SCF convergence          0.1000000E-05 Eh   :
          :  -> wf. convergence          0.1000000E-03 e    :
          :  Broyden damping             0.4000000          :
          ...................................................

 iter      E             dE          RMSdq      gap      omega  full diag
   1    -27.5302761 -0.275303E+02  0.488E+00    3.78       0.0  T
   2    -27.5486559 -0.183799E-01  0.273E+00    3.85       1.0  T
   3    -27.5477648  0.891131E-03  0.653E-01    3.63       1.0  T
   4    -27.5499797 -0.221491E-02  0.213E-01    3.81       1.0  T
   5    -27.5502094 -0.229689E-03  0.782E-02    3.79       1.0  T
   6    -27.5502098 -0.428608E-06  0.321E-02    3.79       1.0  T
   7    -27.5502138 -0.399896E-05  0.123E-02    3.80       2.0  T
   8    -27.5502145 -0.675048E-06  0.494E-03    3.80       4.9  T
   9    -27.5502146 -0.458467E-07  0.240E-03    3.80      10.1  T
  10    -27.5502146 -0.313940E-07  0.920E-04    3.80      26.4  T
  11    -27.5502146 -0.287428E-08  0.278E-04    3.80      87.3  T

   *** convergence criteria satisfied after 11 iterations ***

         #    Occupation            Energy/Eh            Energy/eV
      -------------------------------------------------------------
         1        2.0000           -0.7130004             -19.4017
       ...           ...                  ...                  ...
        18        2.0000           -0.4723543             -12.8534
        19        2.0000           -0.4621557             -12.5759
        20        2.0000           -0.4541468             -12.3580
        21        2.0000           -0.4311131             -11.7312
        22        2.0000           -0.4214883             -11.4693
        23        2.0000           -0.4054258             -11.0322
        24        2.0000           -0.3675555             -10.0017 (HOMO)
        25                         -0.2280580              -6.2058 (LUMO)
        26                         -0.2073329              -5.6418
        27                         -0.0911415              -2.4801
        28                          0.0168830               0.4594
        29                          0.0665569               1.8111
       ...                                ...                  ...
        44                          0.6421208              17.4730
      -------------------------------------------------------------
                  HL-Gap            0.1394975 Eh            3.7959 eV
             Fermi-level           -0.2978067 Eh           -8.1037 eV

 SCC (total)                   0 d,  0 h,  0 min,  0.009 sec
 SCC setup                      ...        0 min,  0.000 sec (  4.460%)
 Dispersion                     ...        0 min,  0.000 sec (  1.221%)
 classical contributions        ...        0 min,  0.000 sec (  0.231%)
 integral evaluation            ...        0 min,  0.001 sec ( 16.215%)
 iterations                     ...        0 min,  0.004 sec ( 44.382%)
 molecular gradient             ...        0 min,  0.003 sec ( 31.647%)
 printout                       ...        0 min,  0.000 sec (  1.597%)

         :::::::::::::::::::::::::::::::::::::::::::::::::::::
         ::                     SUMMARY                     ::
         :::::::::::::::::::::::::::::::::::::::::::::::::::::
         :: total energy             -27.193618515940 Eh    ::
         :: total w/o Gsasa/hb       -27.189030555850 Eh    ::
         :: gradient norm              0.020882732756 Eh/a0 ::
         :: HOMO-LUMO gap              3.795921473246 eV    ::
         ::.................................................::
         :: SCC energy               -27.550214595540 Eh    ::
         :: -> isotropic ES            0.046974823008 Eh    ::
         :: -> anisotropic ES          0.003521429924 Eh    ::
         :: -> anisotropic XC          0.007595276145 Eh    ::
         :: -> dispersion             -0.012530679441 Eh    ::
         :: -> Gsolv                  -0.011093424494 Eh    ::
         ::    -> Gelec               -0.006505464404 Eh    ::
         ::    -> Gsasa                0.000839482164 Eh    ::
         ::    -> Ghb                 -0.006508201952 Eh    ::
         ::    -> Gshift               0.001080759698 Eh    ::
         :: repulsion energy           0.356596303413 Eh    ::
         :: add. restraining           0.000000000000 Eh    ::
         :: total charge               0.000000000000 e     ::
         :::::::::::::::::::::::::::::::::::::::::::::::::::::

      ----------------------------------------------------------- 
     |                   =====================                   |
     |                        A N C O P T                        |
     |                   =====================                   |
     |               Approximate Normal Coordinate               |
     |                Rational Function Optimizer                |
      ----------------------------------------------------------- 

          ...................................................
          :                      SETUP                      :
          :.................................................:
          :   optimization level            normal          :
          :   max. optcycles                   200          :
          :   ANC micro-cycles                  20          :
          :   degrees of freedom                45          :
          :.................................................:
          :   RF solver                   davidson          :
          :   write xtbopt.log                true          :
          :   linear?                        false          :
          :   energy convergence         0.5000000E-05 Eh   :
          :   grad. convergence          0.1000000E-02 Eh/α :
          :   maximium RF displ.         1.0000000          :
          :   Hlow (freq-cutoff)         0.1000000E-01      :
          :   Hmax (freq-cutoff)         5.0000000          :
          :   S6 in model hess.         20.0000000          :
          ...................................................

generating ANC from model Hessian ...
Using Lindh-Hessian (1995)
 Shifting diagonal of input Hessian by   7.848585259413274E-003
 Lowest  eigenvalues of input Hessian
    0.000000    0.000000    0.000000    0.000000    0.000000    0.000000
    0.010000    0.012592    0.015818    0.019243    0.022634    0.028277
    0.036864    0.039237    0.050645    0.052008    0.071918    0.077148
 Highest eigenvalues
    1.524463    1.614949    1.825443    1.886778    1.996467    2.096942
 

........................................................................
.............................. CYCLE    1 ..............................
........................................................................
   1    -27.5502146 -0.275502E+02  0.134E-04    3.80       0.0  T
   2    -27.5502146 -0.635758E-10  0.865E-05    3.80     280.4  T
   3    -27.5502146 -0.195044E-10  0.568E-05    3.80     426.9  T
     SCC iter.                  ...        0 min,  0.002 sec
     gradient                   ...        0 min,  0.003 sec
 * total energy  :   -27.1936185 Eh     change       -0.1943121E-09 Eh
   gradient norm :     0.0208838 Eh/α   predicted     0.0000000E+00 (-100.00%)
   displ. norm   :     0.0864552 α      lambda       -0.1121828E-02
   maximum displ.:     0.0403143 α      in ANC's #23, #3, #8, ...

........................................................................
.............................. CYCLE    2 ..............................
........................................................................
   1    -27.5629220 -0.275629E+02  0.942E-02    3.84       0.0  T
   2    -27.5629274 -0.537915E-05  0.554E-02    3.84       1.0  T
   3    -27.5629250  0.237965E-05  0.247E-02    3.84       1.0  T
   4    -27.5629293 -0.426659E-05  0.328E-03    3.84       7.4  T
   5    -27.5629294 -0.451542E-07  0.197E-03    3.84      12.3  T
   6    -27.5629294 -0.117941E-07  0.897E-04    3.84      27.0  T
   7    -27.5629294 -0.219353E-08  0.352E-04    3.84      69.0  T
     SCC iter.                  ...        0 min,  0.003 sec
     gradient                   ...        0 min,  0.003 sec
 * total energy  :   -27.1943107 Eh     change       -0.6921355E-03 Eh
   gradient norm :     0.0078556 Eh/α   predicted    -0.5651059E-03 ( -18.35%)
   displ. norm   :     0.0401600 α      lambda       -0.1190727E-03
   maximum displ.:     0.0299552 α      in ANC's #3, #9, #23, ...

........................................................................
.............................. CYCLE    3 ..............................
........................................................................
   1    -27.5661928 -0.275662E+02  0.390E-02    3.84       0.0  T
   2    -27.5661953 -0.256176E-05  0.224E-02    3.85       1.1  T
   3    -27.5661955 -0.170257E-06  0.127E-02    3.85       1.9  T
   4    -27.5661961 -0.584574E-06  0.190E-03    3.85      12.8  T
   5    -27.5661961 -0.197588E-07  0.101E-03    3.85      24.0  T
   6    -27.5661961 -0.423050E-08  0.599E-04    3.85      40.5  T
   7    -27.5661961 -0.108111E-08  0.202E-04    3.85     119.8  T
     SCC iter.                  ...        0 min,  0.003 sec
     gradient                   ...        0 min,  0.003 sec
 * total energy  :   -27.1943806 Eh     change       -0.6990372E-04 Eh
   gradient norm :     0.0030002 Eh/α   predicted    -0.5963387E-04 ( -14.69%)
   displ. norm   :     0.0200119 α      lambda       -0.1602066E-04
   maximum displ.:     0.0175892 α      in ANC's #3, #9, #8, ...

........................................................................
.............................. CYCLE    4 ..............................
........................................................................
   1    -27.5661267 -0.275661E+02  0.153E-02    3.84       0.0  T
   2    -27.5661272 -0.500300E-06  0.891E-03    3.85       2.7  T
   3    -27.5661273 -0.615771E-07  0.517E-03    3.85       4.7  T
   4    -27.5661274 -0.765130E-07  0.813E-04    3.85      29.8  T
   5    -27.5661274 -0.396100E-08  0.391E-04    3.85      62.1  T
     SCC iter.                  ...        0 min,  0.002 sec
     gradient                   ...        0 min,  0.003 sec
 * total energy  :   -27.1943912 Eh     change       -0.1060547E-04 Eh
   gradient norm :     0.0010146 Eh/α   predicted    -0.8011868E-05 ( -24.46%)
   displ. norm   :     0.0175932 α      lambda       -0.4010183E-05
   maximum displ.:     0.0142490 α      in ANC's #3, #8, #9, ...

........................................................................
.............................. CYCLE    5 ..............................
........................................................................
   1    -27.5654459 -0.275654E+02  0.116E-02    3.84       0.0  T
   2    -27.5654460 -0.173404E-06  0.684E-03    3.84       3.5  T
   3    -27.5654460  0.617308E-08  0.371E-03    3.84       6.5  T
   4    -27.5654461 -0.578584E-07  0.502E-04    3.84      48.3  T
   5    -27.5654461 -0.152342E-08  0.255E-04    3.84      95.1  T
     SCC iter.                  ...        0 min,  0.003 sec
     gradient                   ...        0 min,  0.005 sec
 * total energy  :   -27.1943931 Eh     change       -0.1975965E-05 Eh
   gradient norm :     0.0006129 Eh/α   predicted    -0.2006216E-05 (   1.53%)
   displ. norm   :     0.0047521 α      lambda       -0.4867221E-06
   maximum displ.:     0.0044034 α      in ANC's #3, #9, #14, ...

   *** GEOMETRY OPTIMIZATION CONVERGED AFTER 5 ITERATIONS ***

------------------------------------------------------------------------
 total energy gain   :        -0.0007746 Eh       -0.4861 kcal/mol
 total RMSD          :         0.0349179 a0        0.0185 Å
 total power (kW/mol):        -0.4067534 (step)  -48.1605 (real)
------------------------------------------------------------------------

 ANCopt (total)                0 d,  0 h,  0 min,  0.042 sec
 optimizer setup                ...        0 min,  0.000 sec (  0.402%)
 model hessian                  ...        0 min,  0.002 sec (  3.562%)
 ANC generation                 ...        0 min,  0.000 sec (  0.729%)
 coordinate transformation      ...        0 min,  0.000 sec (  0.088%)
 single point calculation       ...        0 min,  0.038 sec ( 90.512%)
 optimization log               ...        0 min,  0.001 sec (  2.488%)
 hessian update                 ...        0 min,  0.000 sec (  0.081%)
 rational function              ...        0 min,  0.001 sec (  1.332%)

================
 final structure:
================
17
 xtb: 6.4.1 (afa7bdf)
C         0.92034744070310   -0.27214210669410    0.00004764653302
C         0.40238998420057    1.01749842265284    0.00010453275012
C        -0.96707928959558    1.21438441729374    0.00012618142296
C        -1.84020251114362    0.13423803799553    0.00009462603572
C        -1.32136185466222   -1.15673284399139    0.00004994160376
C         0.04375491373495   -1.35562976989070    0.00002536329411
H        -1.98436329939451   -2.00937750120931    0.00003245899535
H         0.45865180180578   -2.35091342944179   -0.00001373687079
O        -3.18006804089515    0.38569284579955    0.00009736177281
H        -3.67880311368943   -0.44485891079516    0.00020084160355
H        -1.37678044139982    2.21198849785356    0.00016633245018
H         1.04990653636271    1.87897503046076    0.00014060530210
O         2.25430041644796   -0.58427513531085    0.00001776408714
C         3.19329560188640    0.47258579414203   -0.00015117991773
H         4.16755198915412   -0.01105559293237   -0.00031001247857
H         3.09102429938229    1.09312735346958   -0.89455645405475
H         3.09132956710245    1.09314889059808    0.89427472747102
 
 Bond Distances (Angstroems)
 ---------------------------
C1-C2=1.3898         C1-C6=1.3937         C1-O13=1.3700        C2-C1=1.3898         C2-C3=1.3835         C2-H12=1.0777        
C3-C2=1.3835         C3-C4=1.3889         C3-H11=1.0785        C4-C3=1.3889         C4-C5=1.3913         C4-O9=1.3633         
C5-C4=1.3913         C5-C6=1.3795         C5-H7=1.0801         C6-C1=1.3937         C6-C5=1.3795         C6-H8=1.0783         
H7-C5=1.0801         H8-C6=1.0783         O9-C4=1.3633         O9-H10=0.9688        H10-O9=0.9688        H11-C3=1.0785        
H12-C2=1.0777        O13-C1=1.3700        O13-C14=1.4137       C14-O13=1.4137       C14-H15=1.0877       C14-H16=1.0934       
C14-H17=1.0934       H15-C14=1.0877       H16-C14=1.0934       H17-C14=1.0934       
 C  H  Rav=1.0841 sigma=0.0066  Rmin=1.0777  Rmax=1.0934     7
 C  C  Rav=1.3878 sigma=0.0048  Rmin=1.3795  Rmax=1.3937     6
 O  H  Rav=0.9688 sigma=0.0000  Rmin=0.9688  Rmax=0.9688     1
 O  C  Rav=1.3823 sigma=0.0224  Rmin=1.3633  Rmax=1.4137     3
 
 selected bond angles (degree)
 --------------------
C6-C1-C2=119.14                O13-C1-C2=125.05               O13-C1-C6=115.80               C3-C2-C1=120.06                
H12-C2-C1=121.19               H12-C2-C3=118.75               C4-C3-C2=120.77                H11-C3-C2=120.51               
H11-C3-C4=118.72               C5-C4-C3=119.15                O9-C4-C3=118.32                O9-C4-C5=122.52                
C6-C5-C4=120.18                H7-C5-C4=120.24                H7-C5-C6=119.58                C5-C6-C1=120.68                
H8-C6-C1=118.40                H8-C6-C5=120.92                H10-O9-C4=110.36               
 
 selected dihedral angles (degree)
 ---------------------------------
C3-C2-C1-C6=  0.00            C3-C2-C1-O13=180.00           H12-C2-C1-C6=180.00           H12-C2-C1-O13=  0.00          
C4-C3-C2-C1=  0.00            C4-C3-C2-H12=180.00           H11-C3-C2-C1=180.00           H11-C3-C2-H12=  0.00          
C5-C4-C3-C2=  0.00            C5-C4-C3-H11=180.00           O9-C4-C3-C2=180.00            O9-C4-C3-H11=  0.00           
C6-C5-C4-C3=  0.00            C6-C5-C4-O9=180.00            H7-C5-C4-C3=180.00            H7-C5-C4-O9=  0.00            
C5-C6-C1-C2=  0.00            C5-C6-C1-O13=180.00           H8-C6-C1-C2=180.00            H8-C6-C1-O13=  0.00           
C1-C6-C5-C4=  0.00            C1-C6-C5-H7=180.00            H8-C6-C5-C4=180.00            H8-C6-C5-H7=  0.00            
H10-O9-C4-C3=180.01           H10-O9-C4-C5=  0.00           
           -------------------------------------------------
          |                Final Singlepoint                |
           -------------------------------------------------

          ...................................................
          :                      SETUP                      :
          :.................................................:
          :  # basis functions                  44          :
          :  # atomic orbitals                  44          :
          :  # shells                           26          :
          :  # electrons                        48          :
          :  max. iterations                   250          :
          :  Hamiltonian                  GFN2-xTB          :
          :  restarted?                      false          :
          :  GBSA solvation                   true          :
          :  PC potential                    false          :
          :  electronic temp.          300.0000000     K    :
          :  accuracy                    1.0000000          :
          :  -> integral cutoff          0.2500000E+02      :
          :  -> integral neglect         0.1000000E-07      :
          :  -> SCF convergence          0.1000000E-05 Eh   :
          :  -> wf. convergence          0.1000000E-03 e    :
          :  Broyden damping             0.4000000          :
          ...................................................

 iter      E             dE          RMSdq      gap      omega  full diag
   1    -27.5654461 -0.275654E+02  0.144E-04    3.84       0.0  T
   2    -27.5654461 -0.256328E-10  0.992E-05    3.84     244.5  T
   3    -27.5654461 -0.129496E-10  0.389E-05    3.84     624.0  T

   *** convergence criteria satisfied after 3 iterations ***

         #    Occupation            Energy/Eh            Energy/eV
      -------------------------------------------------------------
         1        2.0000           -0.7140422             -19.4301
       ...           ...                  ...                  ...
        18        2.0000           -0.4729481             -12.8696
        19        2.0000           -0.4612996             -12.5526
        20        2.0000           -0.4533302             -12.3357
        21        2.0000           -0.4310910             -11.7306
        22        2.0000           -0.4200321             -11.4297
        23        2.0000           -0.4063277             -11.0567
        24        2.0000           -0.3661952              -9.9647 (HOMO)
        25                         -0.2249452              -6.1211 (LUMO)
        26                         -0.2049276              -5.5764
        27                         -0.0859742              -2.3395
        28                          0.0252367               0.6867
        29                          0.0759769               2.0674
       ...                                ...                  ...
        44                          0.6654208              18.1070
      -------------------------------------------------------------
                  HL-Gap            0.1412499 Eh            3.8436 eV
             Fermi-level           -0.2955702 Eh           -8.0429 eV

 SCC (total)                   0 d,  0 h,  0 min,  0.007 sec
 SCC setup                      ...        0 min,  0.000 sec (  6.393%)
 Dispersion                     ...        0 min,  0.000 sec (  0.778%)
 classical contributions        ...        0 min,  0.000 sec (  0.258%)
 integral evaluation            ...        0 min,  0.002 sec ( 24.045%)
 iterations                     ...        0 min,  0.002 sec ( 25.415%)
 molecular gradient             ...        0 min,  0.003 sec ( 40.902%)
 printout                       ...        0 min,  0.000 sec (  1.806%)

         :::::::::::::::::::::::::::::::::::::::::::::::::::::
         ::                     SUMMARY                     ::
         :::::::::::::::::::::::::::::::::::::::::::::::::::::
         :: total energy             -27.194393137162 Eh    ::
         :: total w/o Gsasa/hb       -27.189649565028 Eh    ::
         :: gradient norm              0.000609990945 Eh/a0 ::
         :: HOMO-LUMO gap              3.843606552527 eV    ::
         ::.................................................::
         :: SCC energy               -27.565446091364 Eh    ::
         :: -> isotropic ES            0.046583228258 Eh    ::
         :: -> anisotropic ES          0.003233510655 Eh    ::
         :: -> anisotropic XC          0.006894920861 Eh    ::
         :: -> dispersion             -0.012575492282 Eh    ::
         :: -> Gsolv                  -0.011183279840 Eh    ::
         ::    -> Gelec               -0.006439707707 Eh    ::
         ::    -> Gsasa                0.000783663737 Eh    ::
         ::    -> Ghb                 -0.006607995569 Eh    ::
         ::    -> Gshift               0.001080759698 Eh    ::
         :: repulsion energy           0.371053562442 Eh    ::
         :: add. restraining           0.000000000000 Eh    ::
         :: total charge               0.000000000000 e     ::
         :::::::::::::::::::::::::::::::::::::::::::::::::::::

           ------------------------------------------------- 
          |                Numerical Hessian                |
           ------------------------------------------------- 
step length          :   0.00500
SCC accuracy         :   0.30000
Hessian scale factor :   1.00000
frozen atoms in %    :   0.00000    0
RMS gradient         :   0.00061
estimated CPU  time      0.01 min
estimated wall time      0.01 min

writing file <hessian>.

 projected vibrational frequencies (cm⁻¹)
eigval :       -0.00    -0.00    -0.00     0.00     0.00     0.00
eigval :       79.19   150.98   222.42   234.21   361.66   367.59
eigval :      371.12   392.03   403.78   497.84   502.38   615.10
eigval :      664.86   728.26   801.08   853.15   858.66   890.19
eigval :      906.96  1001.78  1048.23  1107.95  1115.76  1129.51
eigval :     1151.62  1179.04  1189.34  1272.60  1284.10  1336.55
eigval :     1389.33  1426.37  1459.99  1471.72  1480.21  1583.32
eigval :     1616.78  2939.21  2952.86  3033.25  3077.91  3101.47
eigval :     3107.12  3114.37  3463.62
           -------------------------------------------------
          |                Property Printout                |
           -------------------------------------------------

    * Orbital Energies and Occupations

         #    Occupation            Energy/Eh            Energy/eV
      -------------------------------------------------------------
         1        2.0000           -0.7140424             -19.4301
       ...           ...                  ...                  ...
        12        2.0000           -0.5418333             -14.7440
        13        2.0000           -0.5174288             -14.0800
        14        2.0000           -0.5163049             -14.0494
        15        2.0000           -0.4952115             -13.4754
        16        2.0000           -0.4805112             -13.0754
        17        2.0000           -0.4742225             -12.9043
        18        2.0000           -0.4729482             -12.8696
        19        2.0000           -0.4612997             -12.5526
        20        2.0000           -0.4533303             -12.3357
        21        2.0000           -0.4310912             -11.7306
        22        2.0000           -0.4200321             -11.4297
        23        2.0000           -0.4063276             -11.0567
        24        2.0000           -0.3661953              -9.9647 (HOMO)
        25                         -0.2249451              -6.1211 (LUMO)
        26                         -0.2049277              -5.5764
        27                         -0.0859743              -2.3395
        28                          0.0252365               0.6867
        29                          0.0759767               2.0674
        30                          0.1162207               3.1625
        31                          0.1308993               3.5620
        32                          0.1468602               3.9963
        33                          0.1603053               4.3621
        34                          0.1787892               4.8651
        35                          0.2036584               5.5418
       ...                                ...                  ...
        44                          0.6654208              18.1070
      -------------------------------------------------------------
                  HL-Gap            0.1412501 Eh            3.8436 eV
             Fermi-level           -0.2955702 Eh           -8.0429 eV

     #   Z          covCN         q      C6AA      α(0)
     1   6 C        2.862     0.129    25.181     8.225
     2   6 C        2.918    -0.071    29.776     8.948
     3   6 C        2.921    -0.064    29.601     8.922
     4   6 C        2.844     0.134    25.059     8.204
     5   6 C        2.918    -0.075    29.881     8.964
     6   6 C        2.921    -0.063    29.566     8.917
     7   1 H        0.926     0.051     2.303     2.373
     8   1 H        0.926     0.053     2.280     2.361
     9   8 O        1.659    -0.461    22.074     6.343
    10   1 H        0.804     0.372     0.540     1.154
    11   1 H        0.926     0.053     2.284     2.363
    12   1 H        0.926     0.050     2.326     2.385
    13   8 O        1.704    -0.310    19.174     5.912
    14   6 C        3.641     0.023    20.536     6.516
    15   1 H        0.925     0.078     1.999     2.211
    16   1 H        0.924     0.051     2.303     2.373
    17   1 H        0.924     0.051     2.303     2.373

 Mol. C6AA /au·bohr⁶  :       3197.671920
 Mol. C8AA /au·bohr⁸  :      75516.144143
 Mol. α(0) /au        :         88.545547


Wiberg/Mayer (AO) data.
largest (>0.10) Wiberg bond orders for each atom

 ---------------------------------------------------------------------------
     #   Z sym  total        # sym  WBO       # sym  WBO       # sym  WBO
 ---------------------------------------------------------------------------
     1   6 C    3.933 --     2 C    1.376     6 C    1.356    13 O    1.043
     2   6 C    3.988 --     3 C    1.445     1 C    1.376    12 H    0.965
                             5 C    0.102
     3   6 C    3.988 --     2 C    1.445     4 C    1.376    11 H    0.968
                             6 C    0.110
     4   6 C    3.941 --     3 C    1.376     5 C    1.362     9 O    1.067
     5   6 C    3.986 --     6 C    1.466     4 C    1.362     7 H    0.965
                             2 C    0.102
     6   6 C    3.988 --     5 C    1.466     1 C    1.356     8 H    0.968
                             3 C    0.110
     7   1 H    0.997 --     5 C    0.965
     8   1 H    0.997 --     6 C    0.968
     9   8 O    2.062 --     4 C    1.067    10 H    0.842
    10   1 H    0.862 --     9 O    0.842
    11   1 H    0.997 --     3 C    0.968
    12   1 H    0.998 --     2 C    0.965
    13   8 O    2.189 --     1 C    1.043    14 C    0.974
    14   6 C    3.934 --    15 H    0.978    16 H    0.977    17 H    0.977
                            13 O    0.974
    15   1 H    0.993 --    14 C    0.978
    16   1 H    0.997 --    14 C    0.977
    17   1 H    0.997 --    14 C    0.977
 ---------------------------------------------------------------------------

Topologies differ in total number of bonds
Writing topology from bond orders to xtbtopo.mol

molecular dipole:
                 x           y           z       tot (Debye)
 q only:        0.039      -0.100      -0.000
   full:        0.054      -0.143       0.000       0.388
molecular quadrupole (traceless):
                xx          xy          yy          xz          yz          zz
 q only:        6.269      10.258      -1.779      -0.002      -0.000      -4.491
  q+dip:        5.439      12.180       0.566      -0.002      -0.000      -6.005
   full:        5.379      12.543      -0.934      -0.002      -0.000      -4.445

           -------------------------------------------------
          |                Geometry Summary                 |
           -------------------------------------------------

      molecular mass/u    :      124.1374871
   center of mass at/Å    :       -0.0384783      -0.0084868       0.0000432
  moments of inertia/u·Å² :        0.1020251E+03   0.5098790E+03   0.6086787E+03
rotational constants/cm⁻¹ :        0.1652303E+00   0.3306203E-01   0.2769545E-01

 * 17 selected distances

     #   Z          #   Z                                           value/Å
     1   6 C        2   6 C                                       1.3897671
     2   6 C        3   6 C                                       1.3835498
     3   6 C        4   6 C                                       1.3889062
     4   6 C        5   6 C                                       1.3913308
     1   6 C        6   6 C                                       1.3936858
     5   6 C        6   6 C                                       1.3795303
     5   6 C        7   1 H                                       1.0800805
     6   6 C        8   1 H                                       1.0782991
     4   6 C        9   8 O                                       1.3632568
     9   8 O       10   1 H                                       0.9687894 (min)
     3   6 C       11   1 H                                       1.0784567
     2   6 C       12   1 H                                       1.0776918
     1   6 C       13   8 O                                       1.3699845
    13   8 O       14   6 C                                       1.4137422 (max)
    14   6 C       15   1 H                                       1.0876969
    14   6 C       16   1 H                                       1.0933856
    14   6 C       17   1 H                                       1.0933862

 * 4 distinct bonds (by element types)

   Z      Z             #   av. dist./Å        max./Å        min./Å
   1 H    6 C           7     1.0841424     1.0933862     1.0776918
   6 C    6 C           6     1.3877950     1.3936858     1.3795303
   1 H    8 O           1     0.9687894     0.9687894     0.9687894
   6 C    8 O           3     1.3823278     1.4137422     1.3632568

           -------------------------------------------------
          |               Frequency Printout                |
           -------------------------------------------------
 projected vibrational frequencies (cm⁻¹)
eigval :       -0.00    -0.00    -0.00     0.00     0.00     0.00
eigval :       79.19   150.98   222.42   234.21   361.66   367.59
eigval :      371.12   392.03   403.78   497.84   502.38   615.10
eigval :      664.86   728.26   801.08   853.15   858.66   890.19
eigval :      906.96  1001.78  1048.23  1107.95  1115.76  1129.51
eigval :     1151.62  1179.04  1189.34  1272.60  1284.10  1336.55
eigval :     1389.33  1426.37  1459.99  1471.72  1480.21  1583.32
eigval :     1616.78  2939.21  2952.86  3033.25  3077.91  3101.47
eigval :     3107.12  3114.37  3463.62
 reduced masses (amu)
   1: 12.38   2: 11.31   3: 12.41   4: 12.19   5: 12.46   6: 10.86   7:  9.98   8: 12.68
   9: 10.09  10:  2.37  11:  6.17  12: 11.57  13:  8.68  14:  8.24  15: 12.35  16:  8.74
  17: 11.47  18: 11.39  19: 11.46  20: 12.46  21:  5.23  22:  3.27  23: 11.80  24:  2.60
  25:  3.79  26:  9.37  27: 11.62  28:  4.25  29:  3.70  30:  3.16  31:  4.19  32:  2.98
  33:  7.45  34:  3.57  35: 12.03  36: 11.50  37:  2.57  38:  9.96  39:  1.55  40:  3.61
  41:  7.47  42: 11.62  43: 11.58  44:  1.95  45:  1.44  46:  1.70  47:  1.81  48:  1.79
  49:  1.85  50:  1.87  51:  1.87
 IR intensities (km·mol⁻¹)
   1:  0.00   2:  0.04   3:  0.01   4:  0.00   5:  0.01   6:  0.01   7:  5.98   8:  6.72
   9:  6.83  10:  0.06  11:124.51  12:  5.59  13: 54.76  14: 29.52  15:  3.29  16:  0.26
  17:  7.22  18:  1.73  19:  0.02  20:146.47  21: 67.44  22:  0.13  23:  3.74  24:  0.03
  25:  0.57  26: 22.23  27: 86.19  28:141.75  29:  2.96  30:276.46  31: 10.09  32: 65.36
  33:608.25  34:  7.58  35:  9.37  36: 61.68  37:  0.50  38: 50.20  39:  6.67  40:193.65
  41:293.61  42:  1.35  43:  0.36  44: 50.32  45: 49.66  46: 18.90  47: 55.16  48: 32.84
  49: 77.69  50: 40.67  51:150.49
 Raman intensities (amu)
   1:  0.00   2:  0.00   3:  0.00   4:  0.00   5:  0.00   6:  0.00   7:  0.00   8:  0.00
   9:  0.00  10:  0.00  11:  0.00  12:  0.00  13:  0.00  14:  0.00  15:  0.00  16:  0.00
  17:  0.00  18:  0.00  19:  0.00  20:  0.00  21:  0.00  22:  0.00  23:  0.00  24:  0.00
  25:  0.00  26:  0.00  27:  0.00  28:  0.00  29:  0.00  30:  0.00  31:  0.00  32:  0.00
  33:  0.00  34:  0.00  35:  0.00  36:  0.00  37:  0.00  38:  0.00  39:  0.00  40:  0.00
  41:  0.00  42:  0.00  43:  0.00  44:  0.00  45:  0.00  46:  0.00  47:  0.00  48:  0.00
  49:  0.00  50:  0.00  51:  0.00
 output can be read by thermo (or use thermo option).
 writing <g98.out> molden fake output.
 recommended (thermochemical) frequency scaling factor: 1.0
           -------------------------------------------------
          |             Thermodynamic Functions             |
           -------------------------------------------------

Molecule has the following symmetry elements: (sigma) 
It seems to be the Cs point group
cs  symmetry found (for desy threshold:  0.10E+00) used in thermo

          ...................................................
          :                      SETUP                      :
          :.................................................:
          :  # frequencies                          45      :
          :  # imaginary freq.                       0      :
          :  linear?                             false      :
          :  only rotor calc.                    false      :
          :  symmetry                               cs      :
          :  rotational number                       1      :
          :  scaling factor                  1.0000000      :
          :  rotor cutoff                   50.0000000 cm⁻¹ :
          :  imag. cutoff                  -20.0000000 cm⁻¹ :
          :.................................................:

    mode    ω/cm⁻¹     T·S(HO)/kcal·mol⁻¹    T·S(FR)/kcal·mol⁻¹   T·S(vib)
   ------------------------------------------------------------------------
       1     79.19    -1.16600 ( 86.29%)    -0.92017 ( 13.71%)    -1.13229
       2    150.98    -0.79303 ( 98.81%)    -0.72908 (  1.19%)    -0.79227
       3    222.42    -0.57820 ( 99.75%)    -0.61434 (  0.25%)    -0.57829
       4    234.21    -0.55051 ( 99.79%)    -0.59904 (  0.21%)    -0.55061
   ------------------------------------------------------------------------

   temp. (K)  partition function   enthalpy   heat capacity  entropy
                                   cal/mol     cal/K/mol   cal/K/mol   J/K/mol
 298.15  VIB   51.1                 3459.380     26.164     19.305
         ROT  0.430E+06              888.752      2.981     28.758
         INT  0.220E+08             4348.132     29.144     48.064
         TR   0.134E+28             1481.254      4.968     40.344
         TOT                        5829.3864    34.1126    88.4077   369.8978

       T/K    H(0)-H(T)+PV         H(T)/Eh          T*S/Eh         G(T)/Eh
   ------------------------------------------------------------------------
    298.15    0.928972E-02    0.141276E+00    0.420054E-01    0.992711E-01
   ------------------------------------------------------------------------

         :::::::::::::::::::::::::::::::::::::::::::::::::::::
         ::                  THERMODYNAMIC                  ::
         :::::::::::::::::::::::::::::::::::::::::::::::::::::
         :: total free energy         -27.095122051457 Eh   ::
         ::.................................................::
         :: total energy              -27.194393137715 Eh   ::
         :: zero point energy           0.131986718968 Eh   ::
         :: G(RRHO) w/o ZPVE           -0.032715632711 Eh   ::
         :: G(RRHO) contrib.            0.099271086258 Eh   ::
         :::::::::::::::::::::::::::::::::::::::::::::::::::::

optimized geometry written to: xtbopt.xyz


           -------------------------------------------------
          | TOTAL ENERGY              -27.194393137715 Eh   |
          | TOTAL ENTHALPY            -27.053116700192 Eh   |
          | TOTAL FREE ENERGY         -27.095122051457 Eh   |
          | GRADIENT NORM               0.000610020420 Eh/α |
          | HOMO-LUMO GAP               3.843611359123 eV   |
           -------------------------------------------------

------------------------------------------------------------------------
 * finished run on 2021/11/15 at 09:36:12.395     
------------------------------------------------------------------------
 total:
 * wall-time:     0 d,  0 h,  0 min,  0.838 sec
 *  cpu-time:     0 d,  0 h,  0 min,  0.781 sec
 * ratio c/w:     0.932 speedup
 SCF:
 * wall-time:     0 d,  0 h,  0 min,  0.009 sec
 *  cpu-time:     0 d,  0 h,  0 min,  0.016 sec
 * ratio c/w:     1.676 speedup
 ANC optimizer:
 * wall-time:     0 d,  0 h,  0 min,  0.051 sec
 *  cpu-time:     0 d,  0 h,  0 min,  0.047 sec
 * ratio c/w:     0.916 speedup
 analytical hessian:
 * wall-time:     0 d,  0 h,  0 min,  0.734 sec
 *  cpu-time:     0 d,  0 h,  0 min,  0.703 sec
 * ratio c/w:     0.958 speedup

