 Entering Gaussian System
 *********************************************
 Gaussian 98:
 frequency output generated by the xtb code
 *********************************************
                         Standard orientation:
 --------------------------------------------------------------------
  Center     Atomic     Atomic              Coordinates (Angstroms)
  Number     Number      Type              X           Y           Z
 --------------------------------------------------------------------
    1          6             0        0.920346   -0.272147    0.000045
    2          6             0        0.402395    1.017496    0.000101
    3          6             0       -0.967073    1.214389    0.000127
    4          6             0       -1.840202    0.134248    0.000101
    5          6             0       -1.321368   -1.156726    0.000057
    6          6             0        0.043748   -1.355630    0.000028
    7          1             0       -1.984374   -2.009367    0.000043
    8          1             0        0.458639   -2.350916   -0.000011
    9          8             0       -3.180066    0.385709    0.000108
   10          1             0       -3.678805   -0.444840    0.000214
   11          1             0       -1.376769    2.211996    0.000167
   12          1             0        1.049916    1.878970    0.000134
   13          8             0        2.254297   -0.584287    0.000011
   14          6             0        3.193298    0.472569   -0.000163
   15          1             0        4.167552   -0.011077   -0.000325
   16          1             0        3.091027    1.093110   -0.894569
   17          1             0        3.091338    1.093134    0.894262
 --------------------------------------------------------------------
     1 basis functions        1 primitive gaussians
     1 alpha electrons        1 beta electrons
 
 Harmonic frequencies (cm**-1), IR intensities (km*mol⁻¹),
 Raman scattering activities (A**4/amu), Raman depolarization ratios,
 reduced masses (AMU), force constants (mDyne/A) and normal coordinates:
                      1                      2                      3
                        a                      a                      a 
 Frequencies --    79.1923               150.9814               222.4225
 Red. masses --     9.9762                12.6786                10.0881
 Frc consts  --     0.0000                 0.0000                 0.0000
 IR Inten    --     5.9775                 6.7229                 6.8314
 Raman Activ --     0.0000                 0.0000                 0.0000
 Depolar     --     0.0000                 0.0000                 0.0000
 Atom AN      X      Y      Z        X      Y      Z        X      Y      Z
   1   6    -0.00   0.00  -0.24    -0.00   0.00  -0.01     0.02  -0.29  -0.00
   2   6    -0.00   0.00  -0.36    -0.00   0.00  -0.18     0.11  -0.25   0.00
   3   6    -0.00   0.00  -0.23    -0.00   0.00  -0.18     0.17  -0.09   0.00
   4   6    -0.00  -0.00   0.05    -0.00   0.00  -0.06     0.08  -0.01   0.00
   5   6    -0.00  -0.00   0.08     0.00   0.00  -0.32    -0.06  -0.06   0.00
   6   6    -0.00   0.00  -0.07     0.00   0.00  -0.29    -0.06  -0.23   0.00
   7   1    -0.00  -0.00   0.07    -0.00   0.00  -0.13    -0.04   0.00  -0.00
   8   1    -0.00  -0.00  -0.01     0.00   0.00  -0.10    -0.05  -0.08  -0.00
   9   8    -0.00  -0.00   0.33    -0.00  -0.00   0.46     0.16   0.33  -0.00
  10   1     0.00  -0.00   0.13     0.00  -0.00   0.12    -0.02   0.12  -0.00
  11   1    -0.00   0.00  -0.09    -0.00   0.00  -0.05     0.08  -0.02   0.00
  12   1    -0.00   0.00  -0.16    -0.00   0.00  -0.05     0.04  -0.08  -0.00
  13   8    -0.00  -0.00  -0.29     0.00   0.00   0.61     0.09  -0.02  -0.00
  14   6     0.00   0.00   0.55     0.00  -0.00  -0.09    -0.42   0.44  -0.00
  15   1     0.00   0.00   0.27     0.00  -0.00   0.08    -0.05   0.27   0.00
  16   1     0.14   0.07   0.19     0.01  -0.17  -0.14    -0.21   0.11  -0.00
  17   1    -0.14  -0.07   0.19    -0.01   0.17  -0.14    -0.21   0.11   0.00
                      4                      5                      6
                        a                      a                      a 
 Frequencies --   234.2112               361.6606               367.5934
 Red. masses --     2.3706                 6.1700                11.5707
 Frc consts  --     0.0000                 0.0000                 0.0000
 IR Inten    --     0.0605               124.5144                 5.5931
 Raman Activ --     0.0000                 0.0000                 0.0000
 Depolar     --     0.0000                 0.0000                 0.0000
 Atom AN      X      Y      Z        X      Y      Z        X      Y      Z
   1   6    -0.00   0.00  -0.06    -0.00  -0.00  -0.18     0.07  -0.03  -0.00
   2   6    -0.00   0.00   0.05     0.00   0.00   0.06    -0.14  -0.12  -0.00
   3   6    -0.00   0.00   0.22     0.00   0.00   0.03    -0.14  -0.30   0.00
   4   6    -0.00   0.00   0.09     0.00   0.00   0.17    -0.21  -0.24   0.00
   5   6     0.00   0.00   0.05     0.00   0.00   0.28    -0.10  -0.21   0.00
   6   6     0.00   0.00   0.02    -0.00  -0.00  -0.34     0.00  -0.03  -0.00
   7   1     0.00  -0.00   0.00    -0.00   0.00   0.15     0.02  -0.10   0.00
   8   1     0.00   0.00  -0.01    -0.00  -0.00  -0.17     0.00  -0.01  -0.00
   9   8    -0.00  -0.00  -0.15     0.00  -0.00  -0.36    -0.12   0.50  -0.00
  10   1     0.00  -0.00  -0.08     0.00   0.00   0.73    -0.18   0.21  -0.00
  11   1    -0.00   0.00   0.09     0.00   0.00  -0.02    -0.06  -0.10   0.00
  12   1    -0.00   0.00  -0.02     0.00  -0.00   0.07    -0.07  -0.01  -0.00
  13   8    -0.00  -0.00  -0.14    -0.00  -0.00   0.16     0.20   0.24   0.00
  14   6     0.00  -0.00  -0.04    -0.00  -0.00   0.01     0.40   0.07   0.00
  15   1     0.00  -0.00   0.55    -0.00   0.00  -0.01     0.08  -0.06  -0.00
  16   1     0.35  -0.31  -0.27    -0.02  -0.01  -0.00     0.16   0.03   0.00
  17   1    -0.35   0.31  -0.27     0.02   0.01  -0.00     0.16   0.03  -0.00
                      7                      8                      9
                        a                      a                      a 
 Frequencies --   371.1219               392.0317               403.7817
 Red. masses --     8.6801                 8.2401                12.3500
 Frc consts  --     0.0000                 0.0000                 0.0000
 IR Inten    --    54.7566                29.5246                 3.2879
 Raman Activ --     0.0000                 0.0000                 0.0000
 Depolar     --     0.0000                 0.0000                 0.0000
 Atom AN      X      Y      Z        X      Y      Z        X      Y      Z
   1   6    -0.00   0.00  -0.33     0.00   0.00   0.04     0.19  -0.24  -0.00
   2   6     0.00   0.00  -0.35     0.00   0.00   0.41     0.03  -0.29  -0.00
   3   6     0.00   0.00   0.29    -0.00   0.00  -0.44     0.03   0.09   0.00
   4   6     0.00   0.00   0.34    -0.00  -0.00  -0.02    -0.23   0.28   0.00
   5   6     0.00   0.00   0.25     0.00  -0.00   0.38    -0.08   0.33   0.00
   6   6    -0.00   0.00  -0.23     0.00   0.00  -0.36    -0.11  -0.03  -0.00
   7   1    -0.00   0.00   0.09     0.00  -0.00   0.22    -0.04   0.11   0.00
   8   1     0.00   0.00  -0.08     0.00   0.00  -0.22    -0.15  -0.06   0.00
   9   8     0.00  -0.00  -0.15     0.00   0.00   0.12    -0.43  -0.25  -0.00
  10   1     0.00  -0.00  -0.51    -0.00  -0.00  -0.36     0.01  -0.13  -0.00
  11   1     0.00   0.00   0.11    -0.00   0.00  -0.25     0.13   0.07   0.00
  12   1     0.00   0.00  -0.16     0.00  -0.00   0.23     0.02  -0.09  -0.00
  13   8    -0.00  -0.00   0.29    -0.00  -0.00  -0.03     0.36  -0.01   0.00
  14   6    -0.00  -0.00   0.03    -0.00  -0.00  -0.01     0.22   0.15  -0.00
  15   1    -0.00   0.00  -0.10     0.00  -0.00   0.05     0.08   0.07  -0.00
  16   1    -0.08   0.02   0.04     0.03  -0.03  -0.03     0.04   0.04  -0.00
  17   1     0.08  -0.02   0.04    -0.03   0.03  -0.03     0.04   0.04   0.00
                     10                     11                     12
                        a                      a                      a 
 Frequencies --   497.8368               502.3780               615.0968
 Red. masses --     8.7447                11.4750                11.3868
 Frc consts  --     0.0000                 0.0000                 0.0000
 IR Inten    --     0.2631                 7.2198                 1.7323
 Raman Activ --     0.0000                 0.0000                 0.0000
 Depolar     --     0.0000                 0.0000                 0.0000
 Atom AN      X      Y      Z        X      Y      Z        X      Y      Z
   1   6     0.00   0.00   0.55    -0.30  -0.19   0.00     0.03  -0.07  -0.00
   2   6     0.00   0.00  -0.11    -0.10  -0.14  -0.00    -0.41  -0.18   0.00
   3   6    -0.00  -0.00  -0.11     0.01   0.23  -0.00    -0.35   0.26   0.00
   4   6    -0.00  -0.00   0.54     0.21   0.10   0.00    -0.02   0.07   0.00
   5   6     0.00   0.00  -0.11    -0.08  -0.02  -0.00     0.46   0.19  -0.00
   6   6     0.00   0.00  -0.10    -0.14  -0.38  -0.00     0.40  -0.26  -0.00
   7   1     0.00  -0.00  -0.29    -0.12   0.07  -0.00     0.12   0.06   0.00
   8   1     0.00   0.00  -0.28    -0.06  -0.12  -0.00     0.09  -0.08  -0.00
   9   8    -0.00   0.00  -0.14     0.27  -0.10  -0.00    -0.01   0.18   0.00
  10   1    -0.00   0.00  -0.01     0.11  -0.05  -0.00    -0.05   0.07   0.00
  11   1    -0.00  -0.00  -0.28     0.01   0.07  -0.00    -0.07   0.08   0.00
  12   1    -0.00   0.00  -0.28     0.08  -0.12  -0.00    -0.10  -0.06  -0.00
  13   8     0.00  -0.00  -0.14    -0.23   0.45  -0.00     0.01  -0.10  -0.00
  14   6    -0.00  -0.00  -0.02     0.23   0.08  -0.00    -0.09  -0.10   0.00
  15   1     0.00   0.00  -0.00    -0.02  -0.16   0.00    -0.01   0.01  -0.00
  16   1     0.01   0.02   0.01     0.18   0.04  -0.00    -0.05  -0.03   0.00
  17   1    -0.01  -0.02   0.01     0.18   0.04   0.00    -0.05  -0.03  -0.00
                     13                     14                     15
                        a                      a                      a 
 Frequencies --   664.8571               728.2578               801.0805
 Red. masses --    11.4607                12.4585                 5.2253
 Frc consts  --     0.0000                 0.0000                 0.0000
 IR Inten    --     0.0197               146.4734                67.4423
 Raman Activ --     0.0000                 0.0000                 0.0000
 Depolar     --     0.0000                 0.0000                 0.0000
 Atom AN      X      Y      Z        X      Y      Z        X      Y      Z
   1   6     0.00  -0.00   0.53     0.01   0.01  -0.00     0.00   0.00  -0.29
   2   6    -0.00   0.00  -0.31    -0.31   0.04   0.00    -0.00  -0.00   0.26
   3   6    -0.00  -0.00   0.30    -0.30   0.22   0.00     0.00  -0.00   0.20
   4   6     0.00   0.00  -0.53     0.11  -0.03   0.00    -0.00   0.00  -0.30
   5   6    -0.00  -0.00   0.31    -0.27  -0.09   0.00     0.00   0.00   0.24
   6   6    -0.00  -0.00  -0.30    -0.25   0.13   0.00     0.00   0.00   0.19
   7   1    -0.00  -0.00   0.11    -0.12   0.01   0.00    -0.00   0.00  -0.41
   8   1    -0.00  -0.00  -0.12    -0.09   0.02   0.00    -0.00   0.00  -0.35
   9   8     0.00   0.00   0.07     0.44  -0.07  -0.00     0.00   0.00   0.06
  10   1     0.00  -0.00   0.02     0.08  -0.00   0.00     0.00  -0.00   0.02
  11   1    -0.00  -0.00   0.13    -0.16   0.03   0.00    -0.00   0.00  -0.36
  12   1    -0.00   0.00  -0.10    -0.12   0.04   0.00    -0.00   0.00  -0.45
  13   8    -0.00   0.00  -0.07     0.39  -0.30   0.00     0.00  -0.00   0.06
  14   6     0.00   0.00  -0.01     0.16   0.07  -0.00    -0.00  -0.00   0.01
  15   1    -0.00  -0.00   0.00     0.12   0.17  -0.00    -0.00   0.00  -0.02
  16   1     0.01   0.01   0.00    -0.06   0.01   0.00    -0.01   0.00   0.01
  17   1    -0.01  -0.01   0.00    -0.06   0.01  -0.00     0.01  -0.00   0.01
                     16                     17                     18
                        a                      a                      a 
 Frequencies --   853.1516               858.6551               890.1889
 Red. masses --     3.2688                11.8043                 2.5994
 Frc consts  --     0.0000                 0.0000                 0.0000
 IR Inten    --     0.1252                 3.7420                 0.0308
 Raman Activ --     0.0000                 0.0000                 0.0000
 Depolar     --     0.0000                 0.0000                 0.0000
 Atom AN      X      Y      Z        X      Y      Z        X      Y      Z
   1   6     0.00  -0.00   0.03    -0.16   0.02   0.00     0.00   0.00  -0.02
   2   6    -0.00  -0.00   0.26     0.19   0.42   0.00    -0.00  -0.00  -0.14
   3   6    -0.00  -0.00   0.17     0.02   0.35   0.00    -0.00  -0.00   0.26
   4   6    -0.00   0.00  -0.00     0.06  -0.00  -0.00    -0.00  -0.00   0.01
   5   6     0.00   0.00  -0.27    -0.06  -0.34  -0.00     0.00   0.00   0.11
   6   6    -0.00   0.00  -0.20     0.06  -0.43  -0.00    -0.00   0.00  -0.21
   7   1     0.00  -0.00   0.55    -0.08  -0.05   0.00    -0.00   0.00  -0.31
   8   1    -0.00   0.00   0.34     0.13  -0.08   0.00     0.00  -0.00   0.51
   9   8     0.00  -0.00  -0.00    -0.38   0.06   0.00     0.00   0.00   0.02
  10   1     0.00  -0.00   0.00    -0.09   0.01  -0.00     0.00  -0.00   0.00
  11   1     0.00  -0.00  -0.30    -0.07   0.07  -0.00    -0.00   0.00  -0.60
  12   1    -0.00   0.00  -0.54     0.12   0.07  -0.00     0.00  -0.00   0.37
  13   8    -0.00   0.00   0.00     0.16  -0.18   0.00    -0.00   0.00  -0.02
  14   6    -0.00  -0.00  -0.00     0.13   0.07  -0.00     0.00  -0.00  -0.00
  15   1    -0.00  -0.00  -0.02     0.08   0.12  -0.00     0.00  -0.00   0.01
  16   1     0.00   0.01   0.01    -0.03   0.01  -0.00     0.00  -0.00  -0.00
  17   1    -0.00  -0.01   0.01    -0.03   0.01   0.00    -0.00   0.00  -0.00
                     19                     20                     21
                        a                      a                      a 
 Frequencies --   906.9637              1001.7819              1048.2317
 Red. masses --     3.7897                 9.3682                11.6206
 Frc consts  --     0.0000                 0.0000                 0.0000
 IR Inten    --     0.5696                22.2277                86.1918
 Raman Activ --     0.0000                 0.0000                 0.0000
 Depolar     --     0.0000                 0.0000                 0.0000
 Atom AN      X      Y      Z        X      Y      Z        X      Y      Z
   1   6     0.00   0.00   0.02    -0.19   0.02   0.00    -0.19   0.02   0.00
   2   6     0.00  -0.00   0.21     0.07   0.32   0.00    -0.05  -0.18  -0.00
   3   6    -0.00   0.00  -0.25    -0.00  -0.43  -0.00     0.05   0.01   0.00
   4   6     0.00  -0.00   0.03    -0.12   0.01   0.00     0.02   0.01   0.00
   5   6     0.00  -0.00   0.25     0.14   0.43   0.00     0.10  -0.03  -0.00
   6   6    -0.00  -0.00  -0.28    -0.02  -0.31  -0.00     0.01   0.19   0.00
   7   1    -0.00   0.00  -0.43    -0.10   0.22   0.00     0.14  -0.09  -0.00
   8   1     0.00  -0.00   0.50    -0.18  -0.15  -0.00     0.19   0.13   0.00
   9   8    -0.00   0.00  -0.01     0.14  -0.02  -0.00    -0.03   0.02   0.00
  10   1     0.00  -0.00   0.01     0.02  -0.00   0.00     0.02  -0.01   0.00
  11   1     0.00  -0.00   0.43    -0.17  -0.19  -0.00     0.15   0.05  -0.00
  12   1    -0.00   0.00  -0.35    -0.13   0.20   0.00     0.07  -0.12  -0.00
  13   8    -0.00  -0.00  -0.01    -0.07  -0.16   0.00    -0.45  -0.41   0.00
  14   6    -0.00   0.00  -0.00     0.19   0.11  -0.00     0.43   0.38  -0.00
  15   1    -0.00   0.00  -0.01     0.09   0.11  -0.00     0.13   0.17  -0.00
  16   1     0.01   0.01   0.00    -0.03   0.01   0.00    -0.01   0.04  -0.01
  17   1    -0.01  -0.01   0.00    -0.03   0.01  -0.00    -0.01   0.04   0.01
                     22                     23                     24
                        a                      a                      a 
 Frequencies --  1107.9515              1115.7580              1129.5053
 Red. masses --     4.2492                 3.7003                 3.1601
 Frc consts  --     0.0000                 0.0000                 0.0000
 IR Inten    --   141.7517                 2.9607               276.4586
 Raman Activ --     0.0000                 0.0000                 0.0000
 Depolar     --     0.0000                 0.0000                 0.0000
 Atom AN      X      Y      Z        X      Y      Z        X      Y      Z
   1   6     0.02   0.14   0.00     0.00  -0.00   0.00    -0.10   0.10   0.00
   2   6    -0.11  -0.10  -0.00     0.00   0.00  -0.00    -0.06  -0.05   0.00
   3   6     0.02  -0.20  -0.00     0.00   0.00   0.00     0.09  -0.03  -0.00
   4   6     0.03   0.23   0.00     0.00  -0.00  -0.00    -0.10  -0.03  -0.00
   5   6    -0.10  -0.15  -0.00     0.00   0.00  -0.00    -0.07   0.04   0.00
   6   6     0.04  -0.15  -0.00    -0.00   0.00   0.00     0.05  -0.06  -0.00
   7   1    -0.14   0.04   0.00     0.00  -0.00   0.00    -0.29   0.22   0.00
   8   1     0.31   0.08  -0.00    -0.00  -0.00  -0.01     0.28   0.09  -0.00
   9   8    -0.10   0.19  -0.00     0.00  -0.00   0.00     0.15  -0.19   0.00
  10   1     0.57  -0.31  -0.00    -0.00   0.00   0.00    -0.48   0.27   0.00
  11   1     0.18   0.01   0.00    -0.00   0.00  -0.00     0.44   0.16  -0.00
  12   1    -0.26   0.14   0.00     0.00  -0.00   0.02    -0.10   0.05   0.00
  13   8     0.02   0.11   0.00     0.00   0.00   0.22     0.04   0.13  -0.00
  14   6     0.05  -0.15  -0.00    -0.00  -0.00  -0.42     0.06  -0.17   0.00
  15   1     0.10   0.14   0.00     0.00   0.00   0.23     0.12   0.18  -0.00
  16   1    -0.12  -0.03   0.02     0.37   0.44   0.17    -0.13  -0.03   0.02
  17   1    -0.12  -0.03  -0.02    -0.37  -0.44   0.17    -0.13  -0.03  -0.02
                     25                     26                     27
                        a                      a                      a 
 Frequencies --  1151.6222              1179.0401              1189.3391
 Red. masses --     4.1949                 2.9763                 7.4502
 Frc consts  --     0.0000                 0.0000                 0.0000
 IR Inten    --    10.0891                65.3552               608.2498
 Raman Activ --     0.0000                 0.0000                 0.0000
 Depolar     --     0.0000                 0.0000                 0.0000
 Atom AN      X      Y      Z        X      Y      Z        X      Y      Z
   1   6     0.05  -0.01  -0.00     0.25   0.03  -0.00    -0.43   0.01   0.00
   2   6    -0.04   0.03  -0.00    -0.07   0.09   0.00    -0.03   0.15   0.00
   3   6    -0.01  -0.06  -0.00     0.03   0.09   0.00     0.01  -0.07  -0.00
   4   6    -0.01   0.04   0.00     0.04  -0.01  -0.00    -0.38   0.05   0.00
   5   6    -0.08   0.01   0.00     0.02  -0.16  -0.00     0.03   0.07   0.00
   6   6     0.08  -0.04   0.00    -0.02  -0.09  -0.00    -0.05  -0.07  -0.00
   7   1    -0.28   0.20   0.00     0.13  -0.14  -0.00     0.41  -0.30  -0.00
   8   1     0.34   0.12  -0.00    -0.45  -0.21   0.00     0.08   0.03   0.00
   9   8     0.02  -0.01   0.00     0.00  -0.01   0.00     0.21  -0.00  -0.00
  10   1    -0.01   0.01  -0.00    -0.04   0.02   0.00     0.13  -0.05   0.00
  11   1     0.05   0.01  -0.00     0.44   0.20  -0.00     0.35   0.13  -0.00
  12   1    -0.14   0.11   0.00    -0.43   0.34   0.00     0.12  -0.05  -0.00
  13   8     0.08  -0.29   0.00    -0.17  -0.07   0.00     0.32  -0.04  -0.00
  14   6    -0.18   0.33  -0.00     0.04   0.11  -0.00    -0.12  -0.01  -0.00
  15   1    -0.29  -0.43   0.00    -0.06  -0.11   0.00    -0.05  -0.06   0.00
  16   1     0.29   0.07  -0.04     0.02   0.02   0.00     0.09   0.01  -0.01
  17   1     0.29   0.07   0.04     0.02   0.02  -0.00     0.09   0.01   0.01
                     28                     29                     30
                        a                      a                      a 
 Frequencies --  1272.6013              1284.0983              1336.5469
 Red. masses --     3.5729                12.0262                11.4996
 Frc consts  --     0.0000                 0.0000                 0.0000
 IR Inten    --     7.5775                 9.3740                61.6839
 Raman Activ --     0.0000                 0.0000                 0.0000
 Depolar     --     0.0000                 0.0000                 0.0000
 Atom AN      X      Y      Z        X      Y      Z        X      Y      Z
   1   6     0.04   0.30   0.00     0.44   0.02  -0.00    -0.06   0.42   0.00
   2   6    -0.08   0.07   0.00     0.29   0.02  -0.00     0.26  -0.27  -0.00
   3   6    -0.17  -0.10  -0.00    -0.27   0.10   0.00    -0.29  -0.15  -0.00
   4   6    -0.07  -0.15   0.00    -0.53   0.16   0.00     0.15   0.40   0.00
   5   6     0.09  -0.13  -0.00    -0.18  -0.07   0.00     0.33  -0.20  -0.00
   6   6     0.12   0.03  -0.00     0.08  -0.20  -0.00    -0.40  -0.12   0.00
   7   1    -0.34   0.25   0.00     0.01  -0.08  -0.00     0.05  -0.02  -0.00
   8   1    -0.34  -0.15   0.00     0.14  -0.02  -0.00    -0.02   0.00  -0.00
   9   8    -0.01   0.08  -0.00     0.32  -0.06  -0.00    -0.01  -0.05   0.00
  10   1     0.18  -0.10  -0.00     0.03   0.01   0.00    -0.17   0.10  -0.00
  11   1     0.32   0.12   0.00    -0.09   0.03   0.00    -0.04  -0.03   0.00
  12   1     0.43  -0.32  -0.00     0.13  -0.02  -0.00    -0.03  -0.00   0.00
  13   8     0.01  -0.08   0.00    -0.27   0.02   0.00     0.10  -0.04   0.00
  14   6    -0.05   0.04   0.00     0.07   0.05  -0.00    -0.04   0.01  -0.00
  15   1    -0.00   0.02   0.00    -0.00  -0.02   0.00    -0.02  -0.03   0.00
  16   1     0.05  -0.01  -0.02    -0.06  -0.02  -0.00     0.04   0.02   0.00
  17   1     0.05  -0.01   0.02    -0.06  -0.02   0.00     0.04   0.02  -0.00
                     31                     32                     33
                        a                      a                      a 
 Frequencies --  1389.3341              1426.3733              1459.9891
 Red. masses --     2.5669                 9.9603                 1.5451
 Frc consts  --     0.0000                 0.0000                 0.0000
 IR Inten    --     0.5031                50.1975                 6.6651
 Raman Activ --     0.0000                 0.0000                 0.0000
 Depolar     --     0.0000                 0.0000                 0.0000
 Atom AN      X      Y      Z        X      Y      Z        X      Y      Z
   1   6    -0.06  -0.00  -0.00    -0.07  -0.37  -0.00    -0.00   0.00  -0.00
   2   6    -0.01   0.03   0.00     0.36   0.05  -0.00    -0.00  -0.00   0.00
   3   6    -0.02  -0.02  -0.00    -0.35   0.14   0.00     0.00  -0.00   0.00
   4   6     0.04  -0.03  -0.00    -0.05  -0.35  -0.00    -0.00   0.00  -0.00
   5   6     0.05   0.02   0.00     0.35   0.03  -0.00    -0.00  -0.00   0.00
   6   6    -0.06   0.01   0.00    -0.29   0.17   0.00     0.00  -0.00  -0.00
   7   1     0.01   0.01   0.00    -0.11   0.18   0.00     0.00  -0.00   0.00
   8   1     0.02   0.02  -0.00     0.10   0.13   0.00    -0.00  -0.00   0.00
   9   8    -0.02   0.01   0.00    -0.02   0.10  -0.00     0.00  -0.00  -0.00
  10   1     0.01  -0.01  -0.00     0.15  -0.07  -0.00    -0.00   0.00  -0.00
  11   1     0.04   0.01   0.00     0.14   0.14   0.00    -0.00  -0.00   0.00
  12   1     0.05  -0.04  -0.00    -0.08   0.16   0.00     0.00  -0.00  -0.02
  13   8     0.12   0.07  -0.00    -0.01   0.08  -0.00    -0.00  -0.00  -0.03
  14   6     0.24   0.20  -0.00     0.02  -0.06  -0.00    -0.00  -0.00  -0.22
  15   1    -0.23  -0.50   0.00     0.02   0.02   0.00     0.00  -0.00   0.72
  16   1    -0.44  -0.26  -0.13    -0.02   0.08   0.06    -0.46   0.07   0.09
  17   1    -0.44  -0.26   0.13    -0.02   0.08  -0.06     0.46  -0.07   0.09
                     34                     35                     36
                        a                      a                      a 
 Frequencies --  1471.7249              1480.2092              1583.3186
 Red. masses --     3.6149                 7.4721                11.6211
 Frc consts  --     0.0000                 0.0000                 0.0000
 IR Inten    --   193.6474               293.6138                 1.3528
 Raman Activ --     0.0000                 0.0000                 0.0000
 Depolar     --     0.0000                 0.0000                 0.0000
 Atom AN      X      Y      Z        X      Y      Z        X      Y      Z
   1   6    -0.20   0.07   0.00    -0.33   0.00   0.00     0.02   0.51   0.00
   2   6     0.03  -0.12  -0.00     0.17  -0.23  -0.00     0.13  -0.33  -0.00
   3   6     0.14   0.07   0.00     0.17   0.18   0.00     0.16   0.28   0.00
   4   6    -0.19   0.08   0.00    -0.35   0.07   0.00    -0.07  -0.53  -0.00
   5   6     0.03  -0.14  -0.00     0.14  -0.25  -0.00    -0.10   0.31   0.00
   6   6     0.18   0.10  -0.00     0.24   0.20   0.00    -0.14  -0.24  -0.00
   7   1    -0.10   0.04   0.00    -0.19   0.10   0.00     0.08   0.00  -0.00
   8   1    -0.13  -0.05   0.00    -0.20  -0.05   0.00     0.06  -0.02  -0.00
   9   8     0.05  -0.01  -0.00     0.09  -0.01  -0.00    -0.02   0.05  -0.00
  10   1     0.01  -0.01   0.00     0.04  -0.02   0.00     0.10  -0.05   0.00
  11   1    -0.12  -0.04   0.00    -0.19  -0.04   0.00    -0.07   0.03   0.00
  12   1    -0.05   0.01  -0.00    -0.22   0.14   0.00    -0.10   0.02   0.00
  13   8     0.06  -0.06   0.00     0.06   0.02  -0.00     0.03  -0.04   0.00
  14   6     0.13  -0.13   0.00    -0.04   0.08  -0.00    -0.02   0.01  -0.00
  15   1    -0.11  -0.26  -0.00     0.05   0.10   0.00    -0.02  -0.02   0.00
  16   1    -0.19   0.43   0.32     0.08  -0.25  -0.18     0.01   0.00  -0.00
  17   1    -0.19   0.43  -0.32     0.08  -0.25   0.18     0.01   0.00   0.00
                     37                     38                     39
                        a                      a                      a 
 Frequencies --  1616.7777              2939.2136              2952.8575
 Red. masses --    11.5793                 1.9547                 1.4403
 Frc consts  --     0.0000                 0.0000                 0.0000
 IR Inten    --     0.3565                50.3170                49.6628
 Raman Activ --     0.0000                 0.0000                 0.0000
 Depolar     --     0.0000                 0.0000                 0.0000
 Atom AN      X      Y      Z        X      Y      Z        X      Y      Z
   1   6    -0.25   0.02   0.00     0.00  -0.00   0.00    -0.00   0.00   0.00
   2   6     0.38  -0.16  -0.00     0.00   0.00   0.00    -0.00  -0.00   0.00
   3   6    -0.45  -0.10   0.00    -0.00   0.00  -0.00     0.00  -0.00  -0.00
   4   6     0.30   0.00  -0.00     0.00   0.00  -0.00    -0.00   0.00  -0.00
   5   6    -0.42   0.17   0.00     0.00   0.00  -0.00     0.00   0.00  -0.00
   6   6     0.46   0.07  -0.00    -0.00   0.00  -0.00     0.00  -0.00  -0.00
   7   1     0.06  -0.08  -0.00     0.00   0.00   0.00    -0.00  -0.00  -0.00
   8   1    -0.08  -0.06   0.00     0.00  -0.00  -0.00    -0.00   0.00   0.00
   9   8    -0.05  -0.00   0.00    -0.00  -0.00   0.00     0.00  -0.00   0.00
  10   1    -0.02   0.01  -0.00    -0.00   0.00   0.00     0.00   0.00  -0.00
  11   1     0.09   0.06   0.00     0.00  -0.00   0.00    -0.00   0.00  -0.00
  12   1    -0.05   0.07   0.00    -0.00  -0.00   0.00     0.01   0.01   0.00
  13   8     0.03  -0.01  -0.00    -0.00  -0.00  -0.01     0.01   0.02  -0.00
  14   6     0.01   0.00  -0.00    -0.00  -0.00  -0.29    -0.05   0.19  -0.00
  15   1    -0.00  -0.01   0.00    -0.00   0.00  -0.05     0.01   0.01  -0.00
  16   1    -0.01  -0.00  -0.00     0.08  -0.40   0.54     0.06  -0.37   0.59
  17   1    -0.01  -0.00   0.00    -0.08   0.40   0.54     0.06  -0.37  -0.58
                     40                     41                     42
                        a                      a                      a 
 Frequencies --  3033.2487              3077.9060              3101.4714
 Red. masses --     1.6990                 1.8122                 1.7856
 Frc consts  --     0.0000                 0.0000                 0.0000
 IR Inten    --    18.8953                55.1589                32.8416
 Raman Activ --     0.0000                 0.0000                 0.0000
 Depolar     --     0.0000                 0.0000                 0.0000
 Atom AN      X      Y      Z        X      Y      Z        X      Y      Z
   1   6    -0.00  -0.00  -0.00    -0.00   0.00   0.00    -0.00  -0.00  -0.00
   2   6     0.00   0.00   0.00     0.00   0.00  -0.00    -0.08  -0.11  -0.00
   3   6     0.00  -0.00  -0.00     0.01  -0.01  -0.00    -0.09   0.21   0.00
   4   6    -0.00   0.00   0.00    -0.01  -0.00   0.00    -0.01   0.00   0.00
   5   6     0.00   0.00   0.00    -0.16  -0.21  -0.00    -0.01  -0.01  -0.00
   6   6    -0.00   0.00   0.00    -0.02   0.04   0.00     0.00  -0.00  -0.00
   7   1    -0.00  -0.00   0.00     0.57   0.75   0.00     0.03   0.04   0.00
   8   1     0.00  -0.00  -0.00     0.08  -0.18  -0.00    -0.01   0.01   0.00
   9   8     0.00   0.00   0.00     0.00   0.00  -0.00    -0.00  -0.00   0.00
  10   1    -0.00  -0.00   0.00     0.00  -0.00   0.00     0.00   0.00  -0.00
  11   1    -0.00   0.00   0.00    -0.02   0.05   0.00     0.31  -0.76  -0.00
  12   1    -0.00  -0.00  -0.00    -0.00  -0.00  -0.00     0.31   0.41   0.00
  13   8     0.01   0.00  -0.00    -0.00  -0.00   0.00    -0.00   0.00   0.00
  14   6     0.22  -0.11  -0.00     0.00   0.00  -0.00     0.00  -0.00  -0.00
  15   1    -0.86   0.44   0.00    -0.00   0.00   0.00    -0.00   0.00   0.00
  16   1     0.03  -0.03   0.01     0.00  -0.00   0.00    -0.00   0.00  -0.00
  17   1     0.03  -0.03  -0.01     0.00  -0.00  -0.00    -0.00   0.00   0.00
                     43                     44                     45
                        a                      a                      a 
 Frequencies --  3107.1241              3114.3681              3463.6174
 Red. masses --     1.8520                 1.8741                 1.8654
 Frc consts  --     0.0000                 0.0000                 0.0000
 IR Inten    --    77.6906                40.6665               150.4883
 Raman Activ --     0.0000                 0.0000                 0.0000
 Depolar     --     0.0000                 0.0000                 0.0000
 Atom AN      X      Y      Z        X      Y      Z        X      Y      Z
   1   6    -0.01   0.00   0.00    -0.01   0.00   0.00    -0.00   0.00  -0.00
   2   6     0.03   0.04   0.00    -0.14  -0.19  -0.00     0.00  -0.00  -0.00
   3   6    -0.01   0.03   0.00     0.05  -0.14  -0.00     0.00  -0.00   0.00
   4   6     0.00  -0.00  -0.00     0.01   0.00  -0.00    -0.01  -0.00   0.00
   5   6     0.04   0.05   0.00     0.01   0.02   0.00     0.00   0.00   0.00
   6   6    -0.10   0.24   0.00    -0.02   0.05   0.00    -0.00   0.00  -0.00
   7   1    -0.11  -0.15  -0.00    -0.04  -0.05  -0.00    -0.00   0.00   0.00
   8   1     0.35  -0.85  -0.00     0.07  -0.18  -0.00     0.00  -0.00  -0.00
   9   8    -0.00   0.00   0.00    -0.00   0.00  -0.00    -0.12  -0.21   0.00
  10   1    -0.00  -0.00  -0.00    -0.00  -0.00   0.00     0.51   0.83  -0.00
  11   1     0.05  -0.12  -0.00    -0.18   0.46   0.00    -0.00   0.01   0.00
  12   1    -0.10  -0.13  -0.00     0.48   0.64   0.00    -0.00   0.00   0.00
  13   8     0.00   0.00  -0.00     0.00  -0.00   0.00     0.00  -0.00  -0.00
  14   6    -0.00   0.00   0.00     0.00  -0.00   0.00    -0.00  -0.00   0.00
  15   1     0.00  -0.00  -0.00    -0.00   0.00   0.00    -0.00   0.00  -0.00
  16   1    -0.00  -0.00   0.00    -0.00   0.00  -0.01    -0.00   0.00  -0.00
  17   1    -0.00  -0.00  -0.00    -0.00   0.00   0.01    -0.00   0.00   0.00
