      -----------------------------------------------------------      
     |                   =====================                   |     
     |                           x T B                           |     
     |                   =====================                   |     
     |                         S. Grimme                         |     
     |          Mulliken Center for Theoretical Chemistry        |     
     |                    University of Bonn                     |     
      -----------------------------------------------------------      

   * xtb version 6.4.1 (afa7bdf) compiled by 'ehlert@majestix' on 2021-06-10

   xtb is free software: you can redistribute it and/or modify it under
   the terms of the GNU Lesser General Public License as published by
   the Free Software Foundation, either version 3 of the License, or
   (at your option) any later version.
   
   xtb is distributed in the hope that it will be useful,
   but WITHOUT ANY WARRANTY; without even the implied warranty of
   MERCHANTABILITY or FITNESS FOR A PARTICULAR PURPOSE.  See the
   GNU Lesser General Public License for more details.
   
   Cite this work as:
   * C. Bannwarth, E. Caldeweyher, S. Ehlert, A. Hansen, P. Pracht,
     J. Seibert, S. Spicher, S. Grimme, WIREs Comput. Mol. Sci., 2020, 11,
     e01493. DOI: 10.1002/wcms.1493
   
   for GFN2-xTB:
   * C. Bannwarth, S. Ehlert and S. Grimme., J. Chem. Theory Comput., 2019,
     15, 1652-1671. DOI: 10.1021/acs.jctc.8b01176
   for GFN1-xTB:
   * S. Grimme, C. Bannwarth, P. Shushkov, J. Chem. Theory Comput., 2017,
     13, 1989-2009. DOI: 10.1021/acs.jctc.7b00118
   for GFN0-xTB:
   * P. Pracht, E. Caldeweyher, S. Ehlert, S. Grimme, ChemRxiv, 2019, preprint.
     DOI: 10.26434/chemrxiv.8326202.v1
   for GFN-FF:
   * S. Spicher and S. Grimme, Angew. Chem. Int. Ed., 2020, 59, 15665-15673.
     DOI: 10.1002/anie.202004239
   
   for DFT-D4:
   * E. Caldeweyher, C. Bannwarth and S. Grimme, J. Chem. Phys., 2017,
     147, 034112. DOI: 10.1063/1.4993215
   * E. Caldeweyher, S. Ehlert, A. Hansen, H. Neugebauer, S. Spicher,
     C. Bannwarth and S. Grimme, J. Chem. Phys., 2019, 150, 154122.
     DOI: 10.1063/1.5090222
   * E. Caldeweyher, J.-M. Mewes, S. Ehlert and S. Grimme, Phys. Chem. Chem. Phys.
     2020, 22, 8499-8512. DOI: 10.1039/D0CP00502A
   
   for sTDA-xTB:
   * S. Grimme and C. Bannwarth, J. Chem. Phys., 2016, 145, 054103.
     DOI: 10.1063/1.4959605
   
   in the mass-spec context:
   * V. Asgeirsson, C. Bauer and S. Grimme, Chem. Sci., 2017, 8, 4879.
     DOI: 10.1039/c7sc00601b
   * J. Koopman and S. Grimme, ACS Omega 2019, 4, 12, 15120-15133.
     DOI: 10.1021/acsomega.9b02011
   
   for metadynamics refer to:
   * S. Grimme, J. Chem. Theory Comput., 2019, 155, 2847-2862
     DOI: 10.1021/acs.jctc.9b00143
   
   for SPH calculations refer to:
   * S. Spicher and S. Grimme, J. Chem. Theory Comput., 2021, 17, 1701-1714
     DOI: 10.1021/acs.jctc.0c01306
   
   with help from (in alphabetical order)
   P. Atkinson, C. Bannwarth, F. Bohle, G. Brandenburg, E. Caldeweyher
   M. Checinski, S. Dohm, S. Ehlert, S. Ehrlich, I. Gerasimov, J. Koopman
   C. Lavigne, S. Lehtola, F. März, M. Müller, F. Musil, H. Neugebauer
   J. Pisarek, C. Plett, P. Pracht, J. Seibert, P. Shushkov, S. Spicher
   M. Stahn, M. Steiner, T. Strunk, J. Stückrath, T. Rose, and J. Unsleber
   
 * started run on 2021/11/15 at 09:23:08.009     

           -------------------------------------------------
          |                Calculation Setup                |
           -------------------------------------------------

          program call               : xtb 11_triclosan.xyz --gfn2 --chrg 0 --uhf 0 --alpb water -P 1
          coordinate file            : 11_triclosan.xyz
          omp threads                :                     1
          number of atoms            :                    24
          number of electrons        :                    88
          charge                     :                     0
          spin                       :                   0.0
          first test random number   :      0.58219645846947

   ID    Z sym.   atoms
    1    6 C      1-6, 13-17, 19
    2    1 H      7-9, 18, 20, 21, 23
    3    8 O      10, 22
    4   17 Cl     11, 12, 24

           -------------------------------------------------
          |                 G F N 2 - x T B                 |
           -------------------------------------------------

        Reference                      10.1021/acs.jctc.8b01176
      * Hamiltonian:
        H0-scaling (s, p, d)           1.850000    2.230000    2.230000
        zeta-weighting                 0.500000
      * Dispersion:
        s8                             2.700000
        a1                             0.520000
        a2                             5.000000
        s9                             5.000000
      * Repulsion:
        kExp                           1.500000    1.000000
        rExp                           1.000000
      * Coulomb:
        alpha                          2.000000
        third order                    shell-resolved
        anisotropic                    true
        a3                             3.000000
        a5                             4.000000
        cn-shift                       1.200000
        cn-exp                         4.000000
        max-rad                        5.000000

      * Solvation model:               ALPB
        Solvent                        water
        Parameter file                 internal GFN2-xTB/ALPB
        Dielectric constant                8.0200E+01
        Reference state                gsolv [1 M gas/solution]
        Free energy shift                  1.0808E-03 Eh       6.7819E-01 kcal/mol
        Temperature                        2.9815E+02 K
        Density                            1.0000E+00 kg/L
        Solvent mass                       1.8000E+01 g/mol
        Interaction kernel             P16
        Born radius scaling (c1)           1.4744E+00
        Born radii integrator          GBOBC
        Born offset                        0.0000E+00 a0       0.0000E+00 AA
        H-bond correction              true
        Ion screening                  false
        Surface tension                    1.0000E-05 Eh       1.5569E+01 dyn/cm
        Grid points                               230 per atom
q/qsh data taken from xtbrestart
CAMM data taken from xtbrestart

          ...................................................
          :                      SETUP                      :
          :.................................................:
          :  # basis functions                  93          :
          :  # atomic orbitals                  90          :
          :  # shells                           44          :
          :  # electrons                        88          :
          :  max. iterations                   250          :
          :  Hamiltonian                  GFN2-xTB          :
          :  restarted?                       true          :
          :  GBSA solvation                   true          :
          :  PC potential                    false          :
          :  electronic temp.          300.0000000     K    :
          :  accuracy                    1.0000000          :
          :  -> integral cutoff          0.2500000E+02      :
          :  -> integral neglect         0.1000000E-07      :
          :  -> SCF convergence          0.1000000E-05 Eh   :
          :  -> wf. convergence          0.1000000E-03 e    :
          :  Broyden damping             0.4000000          :
          ...................................................

 iter      E             dE          RMSdq      gap      omega  full diag
   1    -51.6310237 -0.516310E+02  0.268E-04    3.74       0.0  T
   2    -51.6310237 -0.344990E-09  0.197E-04    3.74     103.7  T
   3    -51.6310237 -0.129489E-09  0.157E-04    3.74     130.2  T

   *** convergence criteria satisfied after 3 iterations ***

         #    Occupation            Energy/Eh            Energy/eV
      -------------------------------------------------------------
         1        2.0000           -1.0652825             -28.9878
       ...           ...                  ...                  ...
        38        2.0000           -0.4289910             -11.6734
        39        2.0000           -0.4282596             -11.6535
        40        2.0000           -0.4249707             -11.5640
        41        2.0000           -0.4141454             -11.2695
        42        2.0000           -0.4134758             -11.2513
        43        2.0000           -0.3991013             -10.8601
        44        2.0000           -0.3884341             -10.5698 (HOMO)
        45                         -0.2510859              -6.8324 (LUMO)
        46                         -0.2488550              -6.7717
        47                         -0.2398619              -6.5270
        48                         -0.2374575              -6.4615
        49                         -0.1661450              -4.5210
       ...                                ...                  ...
        90                          0.6221720              16.9302
      -------------------------------------------------------------
                  HL-Gap            0.1373483 Eh            3.7374 eV
             Fermi-level           -0.3197600 Eh           -8.7011 eV

 SCC (total)                   0 d,  0 h,  0 min,  0.021 sec
 SCC setup                      ...        0 min,  0.001 sec (  3.048%)
 Dispersion                     ...        0 min,  0.000 sec (  1.279%)
 classical contributions        ...        0 min,  0.000 sec (  0.155%)
 integral evaluation            ...        0 min,  0.005 sec ( 22.230%)
 iterations                     ...        0 min,  0.006 sec ( 26.873%)
 molecular gradient             ...        0 min,  0.009 sec ( 44.566%)
 printout                       ...        0 min,  0.000 sec (  1.719%)

         :::::::::::::::::::::::::::::::::::::::::::::::::::::
         ::                     SUMMARY                     ::
         :::::::::::::::::::::::::::::::::::::::::::::::::::::
         :: total energy             -51.067638106773 Eh    ::
         :: total w/o Gsasa/hb       -51.060338111359 Eh    ::
         :: gradient norm              0.025192100453 Eh/a0 ::
         :: HOMO-LUMO gap              3.737437281254 eV    ::
         ::.................................................::
         :: SCC energy               -51.631023668651 Eh    ::
         :: -> isotropic ES            0.058080563085 Eh    ::
         :: -> anisotropic ES         -0.003682349652 Eh    ::
         :: -> anisotropic XC          0.011571843295 Eh    ::
         :: -> dispersion             -0.029010405160 Eh    ::
         :: -> Gsolv                  -0.018605438031 Eh    ::
         ::    -> Gelec               -0.011305442617 Eh    ::
         ::    -> Gsasa               -0.000756884210 Eh    ::
         ::    -> Ghb                 -0.007623870903 Eh    ::
         ::    -> Gshift               0.001080759698 Eh    ::
         :: repulsion energy           0.563351921481 Eh    ::
         :: add. restraining           0.000000000000 Eh    ::
         :: total charge              -0.000000000000 e     ::
         :::::::::::::::::::::::::::::::::::::::::::::::::::::

           -------------------------------------------------
          |                Property Printout                |
           -------------------------------------------------

    * Orbital Energies and Occupations

         #    Occupation            Energy/Eh            Energy/eV
      -------------------------------------------------------------
         1        2.0000           -1.0652825             -28.9878
       ...           ...                  ...                  ...
        32        2.0000           -0.4685378             -12.7496
        33        2.0000           -0.4655165             -12.6673
        34        2.0000           -0.4561908             -12.4136
        35        2.0000           -0.4531736             -12.3315
        36        2.0000           -0.4443159             -12.0904
        37        2.0000           -0.4352985             -11.8451
        38        2.0000           -0.4289910             -11.6734
        39        2.0000           -0.4282596             -11.6535
        40        2.0000           -0.4249707             -11.5640
        41        2.0000           -0.4141454             -11.2695
        42        2.0000           -0.4134758             -11.2513
        43        2.0000           -0.3991013             -10.8601
        44        2.0000           -0.3884341             -10.5698 (HOMO)
        45                         -0.2510859              -6.8324 (LUMO)
        46                         -0.2488550              -6.7717
        47                         -0.2398619              -6.5270
        48                         -0.2374575              -6.4615
        49                         -0.1661450              -4.5210
        50                         -0.1534839              -4.1765
        51                         -0.1386387              -3.7725
        52                         -0.1237396              -3.3671
        53                         -0.1179846              -3.2105
        54                          0.0013127               0.0357
        55                          0.0066101               0.1799
       ...                                ...                  ...
        90                          0.6221720              16.9302
      -------------------------------------------------------------
                  HL-Gap            0.1373483 Eh            3.7374 eV
             Fermi-level           -0.3197600 Eh           -8.7011 eV

     #   Z          covCN         q      C6AA      α(0)
     1   6 C        2.940    -0.044    29.104     8.848
     2   6 C        2.886     0.095    25.898     8.343
     3   6 C        2.973    -0.051    29.260     8.873
     4   6 C        2.886     0.080    26.215     8.394
     5   6 C        2.886     0.147    24.800     8.164
     6   6 C        2.918    -0.056    29.402     8.892
     7   1 H        0.925     0.099     1.792     2.093
     8   1 H        0.925     0.083     1.944     2.180
     9   1 H        0.925     0.097     1.815     2.107
    10   8 O        1.707    -0.253    18.192     5.759
    11  17 Cl       0.949    -0.199   105.409    15.707
    12  17 Cl       0.951    -0.179   104.787    15.661
    13   6 C        2.861     0.114    25.481     8.274
    14   6 C        2.843     0.140    24.937     8.184
    15   6 C        2.918    -0.050    29.249     8.869
    16   6 C        2.943    -0.083    30.087     8.996
    17   6 C        2.940    -0.053    29.326     8.882
    18   1 H        0.925     0.089     1.885     2.147
    19   6 C        2.886     0.098    25.827     8.332
    20   1 H        0.925     0.089     1.888     2.149
    21   1 H        0.925     0.086     1.918     2.166
    22   8 O        1.659    -0.429    21.423     6.248
    23   1 H        0.805     0.390     0.503     1.114
    24  17 Cl       0.952    -0.208   105.724    15.731

 Mol. C6AA /au·bohr⁶  :      12389.738051
 Mol. C8AA /au·bohr⁸  :     368650.688785
 Mol. α(0) /au        :        176.112297


Wiberg/Mayer (AO) data.
largest (>0.10) Wiberg bond orders for each atom

 ---------------------------------------------------------------------------
     #   Z sym  total        # sym  WBO       # sym  WBO       # sym  WBO
 ---------------------------------------------------------------------------
     1   6 C    3.983 --     6 C    1.439     2 C    1.406     9 H    0.961
     2   6 C    3.907 --     1 C    1.406     3 C    1.398    11 Cl   0.953
     3   6 C    3.980 --     4 C    1.422     2 C    1.398     7 H    0.959
                             6 C    0.102
     4   6 C    3.911 --     3 C    1.422     5 C    1.325    12 Cl   0.965
     5   6 C    3.938 --     6 C    1.368     4 C    1.325    10 O    1.053
     6   6 C    3.983 --     1 C    1.439     5 C    1.368     8 H    0.959
                             3 C    0.102
     7   1 H    0.990 --     3 C    0.959
     8   1 H    0.993 --     6 C    0.959
     9   1 H    0.990 --     1 C    0.961
    10   8 O    2.277 --     5 C    1.053    13 C    0.982
    11  17 Cl   1.072 --     2 C    0.953
    12  17 Cl   1.095 --     4 C    0.965
    13   6 C    3.925 --    15 C    1.418    14 C    1.306    10 O    0.982
    14   6 C    3.948 --    16 C    1.373    13 C    1.306    22 O    1.103
    15   6 C    3.983 --    17 C    1.419    13 C    1.418    18 H    0.961
                            16 C    0.100
    16   6 C    3.978 --    19 C    1.407    14 C    1.373    20 H    0.958
                            15 C    0.100
    17   6 C    3.983 --    15 C    1.419    19 C    1.412    21 H    0.963
    18   1 H    0.992 --    15 C    0.961
    19   6 C    3.906 --    17 C    1.412    16 C    1.407    24 Cl   0.950
    20   1 H    0.992 --    16 C    0.958
    21   1 H    0.992 --    17 C    0.963
    22   8 O    2.108 --    14 C    1.103    23 H    0.829
    23   1 H    0.848 --    22 O    0.829
    24  17 Cl   1.074 --    19 C    0.950
 ---------------------------------------------------------------------------

Topologies differ in total number of bonds
Writing topology from bond orders to xtbtopo.mol

molecular dipole:
                 x           y           z       tot (Debye)
 q only:        0.819      -0.810      -0.268
   full:        1.086      -0.833      -0.389       3.616
molecular quadrupole (traceless):
                xx          xy          yy          xz          yz          zz
 q only:      -20.524       1.388      -0.278      -3.277       2.629      20.802
  q+dip:      -13.932      -1.067      -3.133      -3.947       3.546      17.064
   full:      -14.649       0.288      -2.365      -4.410       3.023      17.014


           -------------------------------------------------
          | TOTAL ENERGY              -51.067638106773 Eh   |
          | GRADIENT NORM               0.025192100453 Eh/α |
          | HOMO-LUMO GAP               3.737437281254 eV   |
           -------------------------------------------------

------------------------------------------------------------------------
 * finished run on 2021/11/15 at 09:23:08.056     
------------------------------------------------------------------------
 total:
 * wall-time:     0 d,  0 h,  0 min,  0.047 sec
 *  cpu-time:     0 d,  0 h,  0 min,  0.031 sec
 * ratio c/w:     0.668 speedup
 SCF:
 * wall-time:     0 d,  0 h,  0 min,  0.021 sec
 *  cpu-time:     0 d,  0 h,  0 min,  0.031 sec
 * ratio c/w:     1.492 speedup

