      -----------------------------------------------------------      
     |                   =====================                   |     
     |                           x T B                           |     
     |                   =====================                   |     
     |                         S. Grimme                         |     
     |          Mulliken Center for Theoretical Chemistry        |     
     |                    University of Bonn                     |     
      -----------------------------------------------------------      

   * xtb version 6.4.1 (afa7bdf) compiled by 'ehlert@majestix' on 2021-06-10

   xtb is free software: you can redistribute it and/or modify it under
   the terms of the GNU Lesser General Public License as published by
   the Free Software Foundation, either version 3 of the License, or
   (at your option) any later version.
   
   xtb is distributed in the hope that it will be useful,
   but WITHOUT ANY WARRANTY; without even the implied warranty of
   MERCHANTABILITY or FITNESS FOR A PARTICULAR PURPOSE.  See the
   GNU Lesser General Public License for more details.
   
   Cite this work as:
   * C. Bannwarth, E. Caldeweyher, S. Ehlert, A. Hansen, P. Pracht,
     J. Seibert, S. Spicher, S. Grimme, WIREs Comput. Mol. Sci., 2020, 11,
     e01493. DOI: 10.1002/wcms.1493
   
   for GFN2-xTB:
   * C. Bannwarth, S. Ehlert and S. Grimme., J. Chem. Theory Comput., 2019,
     15, 1652-1671. DOI: 10.1021/acs.jctc.8b01176
   for GFN1-xTB:
   * S. Grimme, C. Bannwarth, P. Shushkov, J. Chem. Theory Comput., 2017,
     13, 1989-2009. DOI: 10.1021/acs.jctc.7b00118
   for GFN0-xTB:
   * P. Pracht, E. Caldeweyher, S. Ehlert, S. Grimme, ChemRxiv, 2019, preprint.
     DOI: 10.26434/chemrxiv.8326202.v1
   for GFN-FF:
   * S. Spicher and S. Grimme, Angew. Chem. Int. Ed., 2020, 59, 15665-15673.
     DOI: 10.1002/anie.202004239
   
   for DFT-D4:
   * E. Caldeweyher, C. Bannwarth and S. Grimme, J. Chem. Phys., 2017,
     147, 034112. DOI: 10.1063/1.4993215
   * E. Caldeweyher, S. Ehlert, A. Hansen, H. Neugebauer, S. Spicher,
     C. Bannwarth and S. Grimme, J. Chem. Phys., 2019, 150, 154122.
     DOI: 10.1063/1.5090222
   * E. Caldeweyher, J.-M. Mewes, S. Ehlert and S. Grimme, Phys. Chem. Chem. Phys.
     2020, 22, 8499-8512. DOI: 10.1039/D0CP00502A
   
   for sTDA-xTB:
   * S. Grimme and C. Bannwarth, J. Chem. Phys., 2016, 145, 054103.
     DOI: 10.1063/1.4959605
   
   in the mass-spec context:
   * V. Asgeirsson, C. Bauer and S. Grimme, Chem. Sci., 2017, 8, 4879.
     DOI: 10.1039/c7sc00601b
   * J. Koopman and S. Grimme, ACS Omega 2019, 4, 12, 15120-15133.
     DOI: 10.1021/acsomega.9b02011
   
   for metadynamics refer to:
   * S. Grimme, J. Chem. Theory Comput., 2019, 155, 2847-2862
     DOI: 10.1021/acs.jctc.9b00143
   
   for SPH calculations refer to:
   * S. Spicher and S. Grimme, J. Chem. Theory Comput., 2021, 17, 1701-1714
     DOI: 10.1021/acs.jctc.0c01306
   
   with help from (in alphabetical order)
   P. Atkinson, C. Bannwarth, F. Bohle, G. Brandenburg, E. Caldeweyher
   M. Checinski, S. Dohm, S. Ehlert, S. Ehrlich, I. Gerasimov, J. Koopman
   C. Lavigne, S. Lehtola, F. März, M. Müller, F. Musil, H. Neugebauer
   J. Pisarek, C. Plett, P. Pracht, J. Seibert, P. Shushkov, S. Spicher
   M. Stahn, M. Steiner, T. Strunk, J. Stückrath, T. Rose, and J. Unsleber
   
 * started run on 2021/11/15 at 09:36:26.354     

           -------------------------------------------------
          |                Calculation Setup                |
           -------------------------------------------------

          program call               : xtb 42_3-fluoro-L-tyrosine.xyz --gfn2 --chrg 0 --uhf 0 --alpb water --ohess -P 1
          coordinate file            : 42_3-fluoro-L-tyrosine.xyz
          omp threads                :                     1
          number of atoms            :                    24
          number of electrons        :                    76
          charge                     :                     0
          spin                       :                   0.0
          first test random number   :      0.46821393109773

   ID    Z sym.   atoms
    1    8 O      1-3
    2    7 N      4
    3    6 C      5-13
    4    1 H      14-23
    5    9 F      24

           -------------------------------------------------
          |                 G F N 2 - x T B                 |
           -------------------------------------------------

        Reference                      10.1021/acs.jctc.8b01176
      * Hamiltonian:
        H0-scaling (s, p, d)           1.850000    2.230000    2.230000
        zeta-weighting                 0.500000
      * Dispersion:
        s8                             2.700000
        a1                             0.520000
        a2                             5.000000
        s9                             5.000000
      * Repulsion:
        kExp                           1.500000    1.000000
        rExp                           1.000000
      * Coulomb:
        alpha                          2.000000
        third order                    shell-resolved
        anisotropic                    true
        a3                             3.000000
        a5                             4.000000
        cn-shift                       1.200000
        cn-exp                         4.000000
        max-rad                        5.000000

      * Solvation model:               ALPB
        Solvent                        water
        Parameter file                 internal GFN2-xTB/ALPB
        Dielectric constant                8.0200E+01
        Reference state                gsolv [1 M gas/solution]
        Free energy shift                  1.0808E-03 Eh       6.7819E-01 kcal/mol
        Temperature                        2.9815E+02 K
        Density                            1.0000E+00 kg/L
        Solvent mass                       1.8000E+01 g/mol
        Interaction kernel             P16
        Born radius scaling (c1)           1.4744E+00
        Born radii integrator          GBOBC
        Born offset                        0.0000E+00 a0       0.0000E+00 AA
        H-bond correction              true
        Ion screening                  false
        Surface tension                    1.0000E-05 Eh       1.5569E+01 dyn/cm
        Grid points                               230 per atom

          ...................................................
          :                      SETUP                      :
          :.................................................:
          :  # basis functions                  66          :
          :  # atomic orbitals                  66          :
          :  # shells                           38          :
          :  # electrons                        76          :
          :  max. iterations                   250          :
          :  Hamiltonian                  GFN2-xTB          :
          :  restarted?                      false          :
          :  GBSA solvation                   true          :
          :  PC potential                    false          :
          :  electronic temp.          300.0000000     K    :
          :  accuracy                    1.0000000          :
          :  -> integral cutoff          0.2500000E+02      :
          :  -> integral neglect         0.1000000E-07      :
          :  -> SCF convergence          0.1000000E-05 Eh   :
          :  -> wf. convergence          0.1000000E-03 e    :
          :  Broyden damping             0.4000000          :
          ...................................................

 iter      E             dE          RMSdq      gap      omega  full diag
   1    -44.6103391 -0.446103E+02  0.513E+00    4.05       0.0  T
   2    -44.7214236 -0.111085E+00  0.261E+00    4.20       1.0  T
   3    -44.7250988 -0.367520E-02  0.117E+00    3.99       1.0  T
   4    -44.7267616 -0.166277E-02  0.401E-01    3.83       1.0  T
   5    -44.7282879 -0.152628E-02  0.116E-01    3.79       1.0  T
   6    -44.7283405 -0.526114E-04  0.632E-02    3.82       1.0  T
   7    -44.7283533 -0.127805E-04  0.146E-02    3.84       1.4  T
   8    -44.7283550 -0.176208E-05  0.688E-03    3.84       3.0  T
   9    -44.7283551 -0.886729E-07  0.291E-03    3.84       7.0  T
  10    -44.7283551 -0.404428E-07  0.892E-04    3.84      22.9  T
  11    -44.7283551 -0.315419E-08  0.501E-04    3.84      40.8  T

   *** convergence criteria satisfied after 11 iterations ***

         #    Occupation            Energy/Eh            Energy/eV
      -------------------------------------------------------------
         1        2.0000           -0.8367986             -22.7704
       ...           ...                  ...                  ...
        32        2.0000           -0.4555953             -12.3974
        33        2.0000           -0.4399219             -11.9709
        34        2.0000           -0.4184938             -11.3878
        35        2.0000           -0.4145391             -11.2802
        36        2.0000           -0.4043581             -11.0031
        37        2.0000           -0.3958850             -10.7726
        38        2.0000           -0.3829144             -10.4196 (HOMO)
        39                         -0.2417849              -6.5793 (LUMO)
        40                         -0.2348345              -6.3902
        41                         -0.1944440              -5.2911
        42                         -0.1118611              -3.0439
        43                         -0.0544437              -1.4815
       ...                                ...                  ...
        66                          0.6215784              16.9140
      -------------------------------------------------------------
                  HL-Gap            0.1411295 Eh            3.8403 eV
             Fermi-level           -0.3123496 Eh           -8.4995 eV

 SCC (total)                   0 d,  0 h,  0 min,  0.022 sec
 SCC setup                      ...        0 min,  0.001 sec (  2.786%)
 Dispersion                     ...        0 min,  0.000 sec (  0.932%)
 classical contributions        ...        0 min,  0.000 sec (  0.166%)
 integral evaluation            ...        0 min,  0.003 sec ( 14.425%)
 iterations                     ...        0 min,  0.012 sec ( 53.877%)
 molecular gradient             ...        0 min,  0.006 sec ( 26.676%)
 printout                       ...        0 min,  0.000 sec (  1.024%)

         :::::::::::::::::::::::::::::::::::::::::::::::::::::
         ::                     SUMMARY                     ::
         :::::::::::::::::::::::::::::::::::::::::::::::::::::
         :: total energy             -44.245930239069 Eh    ::
         :: total w/o Gsasa/hb       -44.235859502324 Eh    ::
         :: gradient norm              0.051292908037 Eh/a0 ::
         :: HOMO-LUMO gap              3.840329430228 eV    ::
         ::.................................................::
         :: SCC energy               -44.728355149100 Eh    ::
         :: -> isotropic ES            0.210493854995 Eh    ::
         :: -> anisotropic ES         -0.011849180905 Eh    ::
         :: -> anisotropic XC          0.006374137833 Eh    ::
         :: -> dispersion             -0.020559257870 Eh    ::
         :: -> Gsolv                  -0.077157881460 Eh    ::
         ::    -> Gelec               -0.067087144715 Eh    ::
         ::    -> Gsasa                0.005320755805 Eh    ::
         ::    -> Ghb                 -0.016472252248 Eh    ::
         ::    -> Gshift               0.001080759698 Eh    ::
         :: repulsion energy           0.482360368428 Eh    ::
         :: add. restraining           0.000000000000 Eh    ::
         :: total charge               0.000000000000 e     ::
         :::::::::::::::::::::::::::::::::::::::::::::::::::::

      ----------------------------------------------------------- 
     |                   =====================                   |
     |                        A N C O P T                        |
     |                   =====================                   |
     |               Approximate Normal Coordinate               |
     |                Rational Function Optimizer                |
      ----------------------------------------------------------- 

          ...................................................
          :                      SETUP                      :
          :.................................................:
          :   optimization level            normal          :
          :   max. optcycles                   200          :
          :   ANC micro-cycles                  20          :
          :   degrees of freedom                66          :
          :.................................................:
          :   RF solver                   davidson          :
          :   write xtbopt.log                true          :
          :   linear?                        false          :
          :   energy convergence         0.5000000E-05 Eh   :
          :   grad. convergence          0.1000000E-02 Eh/α :
          :   maximium RF displ.         1.0000000          :
          :   Hlow (freq-cutoff)         0.1000000E-01      :
          :   Hmax (freq-cutoff)         5.0000000          :
          :   S6 in model hess.         20.0000000          :
          ...................................................

generating ANC from model Hessian ...
Using Lindh-Hessian (1995)
 Shifting diagonal of input Hessian by   8.934034274332436E-003
 Lowest  eigenvalues of input Hessian
    0.000000    0.000000    0.000000    0.000000    0.000000    0.000000
    0.010000    0.010376    0.011000    0.014773    0.020085    0.020964
    0.023025    0.024070    0.024768    0.026054    0.028733    0.033719
 Highest eigenvalues
    1.661929    1.756689    1.876389    2.049772    2.125206    2.311797
 

........................................................................
.............................. CYCLE    1 ..............................
........................................................................
   1    -44.7283551 -0.447284E+02  0.214E-04    3.84       0.0  T
   2    -44.7283551 -0.286541E-09  0.137E-04    3.84     148.7  T
   3    -44.7283552 -0.107100E-09  0.950E-05    3.84     214.9  T
     SCC iter.                  ...        0 min,  0.003 sec
     gradient                   ...        0 min,  0.006 sec
 * total energy  :   -44.2459302 Eh     change       -0.9156977E-09 Eh
   gradient norm :     0.0512915 Eh/α   predicted     0.0000000E+00 (-100.00%)
   displ. norm   :     0.1601258 α      lambda       -0.3525252E-02
   maximum displ.:     0.0557214 α      in ANC's #5, #18, #15, ...

........................................................................
.............................. CYCLE    2 ..............................
........................................................................
   1    -44.7417135 -0.447417E+02  0.145E-01    3.82       0.0  T
   2    -44.7417699 -0.564643E-04  0.857E-02    3.82       1.0  T
   3    -44.7417719 -0.194223E-05  0.436E-02    3.83       1.0  T
   4    -44.7417813 -0.944604E-05  0.913E-03    3.84       2.2  T
   5    -44.7417821 -0.787982E-06  0.347E-03    3.84       5.9  T
   6    -44.7417822 -0.367672E-07  0.142E-03    3.84      14.4  T
   7    -44.7417822 -0.816294E-08  0.664E-04    3.84      30.7  T
   8    -44.7417822 -0.124070E-08  0.276E-04    3.84      74.0  T
     SCC iter.                  ...        0 min,  0.006 sec
     gradient                   ...        0 min,  0.006 sec
 * total energy  :   -44.2483160 Eh     change       -0.2385735E-02 Eh
   gradient norm :     0.0257577 Eh/α   predicted    -0.1807961E-02 ( -24.22%)
   displ. norm   :     0.1651988 α      lambda       -0.1642591E-02
   maximum displ.:     0.0937098 α      in ANC's #14, #5, #2, ...

........................................................................
.............................. CYCLE    3 ..............................
........................................................................
   1    -44.7492276 -0.447492E+02  0.118E-01    3.82       0.0  T
   2    -44.7492860 -0.583358E-04  0.694E-02    3.82       1.0  T
   3    -44.7492932 -0.724185E-05  0.389E-02    3.83       1.0  T
   4    -44.7492982 -0.498651E-05  0.933E-03    3.85       2.2  T
   5    -44.7492989 -0.745148E-06  0.332E-03    3.85       6.1  T
   6    -44.7492990 -0.417236E-07  0.119E-03    3.84      17.1  T
   7    -44.7492990 -0.726364E-08  0.515E-04    3.84      39.6  T
   8    -44.7492990 -0.908059E-09  0.217E-04    3.84      93.9  T
     SCC iter.                  ...        0 min,  0.006 sec
     gradient                   ...        0 min,  0.006 sec
 * total energy  :   -44.2489090 Eh     change       -0.5930031E-03 Eh
   gradient norm :     0.0140160 Eh/α   predicted    -0.8442396E-03 (  42.37%)
   displ. norm   :     0.1056008 α      lambda       -0.8328855E-03
   maximum displ.:     0.0508564 α      in ANC's #2, #20, #18, ...

........................................................................
.............................. CYCLE    4 ..............................
........................................................................
   1    -44.7494349 -0.447494E+02  0.844E-02    3.83       0.0  T
   2    -44.7494471 -0.122274E-04  0.498E-02    3.83       1.0  T
   3    -44.7494455  0.162808E-05  0.230E-02    3.84       1.0  T
   4    -44.7494493 -0.380045E-05  0.473E-03    3.85       4.3  T
   5    -44.7494495 -0.191602E-06  0.171E-03    3.85      11.9  T
   6    -44.7494495 -0.126473E-07  0.697E-04    3.85      29.3  T
   7    -44.7494495 -0.159153E-08  0.256E-04    3.85      79.6  T
     SCC iter.                  ...        0 min,  0.005 sec
     gradient                   ...        0 min,  0.006 sec
 * total energy  :   -44.2491766 Eh     change       -0.2675989E-03 Eh
   gradient norm :     0.0100594 Eh/α   predicted    -0.4210882E-03 (  57.36%)
   displ. norm   :     0.0419200 α      lambda       -0.2256145E-03
   maximum displ.:     0.0169233 α      in ANC's #2, #8, #20, ...

........................................................................
.............................. CYCLE    5 ..............................
........................................................................
   1    -44.7465467 -0.447465E+02  0.345E-02    3.85       0.0  T
   2    -44.7465498 -0.308772E-05  0.201E-02    3.85       1.0  T
   3    -44.7465498 -0.228595E-07  0.982E-03    3.85       2.1  T
   4    -44.7465503 -0.460445E-06  0.208E-03    3.85       9.8  T
   5    -44.7465503 -0.409361E-07  0.748E-04    3.85      27.3  T
   6    -44.7465503 -0.229924E-08  0.367E-04    3.85      55.7  T
     SCC iter.                  ...        0 min,  0.005 sec
     gradient                   ...        0 min,  0.006 sec
 * total energy  :   -44.2493156 Eh     change       -0.1390586E-03 Eh
   gradient norm :     0.0033492 Eh/α   predicted    -0.1130589E-03 ( -18.70%)
   displ. norm   :     0.0544913 α      lambda       -0.5358666E-04
   maximum displ.:     0.0432339 α      in ANC's #2, #14, #1, ...

........................................................................
.............................. CYCLE    6 ..............................
........................................................................
   1    -44.7456143 -0.447456E+02  0.269E-02    3.85       0.0  T
   2    -44.7456155 -0.115506E-05  0.154E-02    3.85       1.3  T
   3    -44.7456155 -0.320531E-07  0.403E-03    3.86       5.1  T
   4    -44.7456156 -0.583457E-07  0.114E-03    3.86      17.9  T
   5    -44.7456156 -0.107523E-07  0.439E-04    3.86      46.5  T
   6    -44.7456156 -0.269353E-09  0.239E-04    3.86      85.4  T
     SCC iter.                  ...        0 min,  0.007 sec
     gradient                   ...        0 min,  0.006 sec
 * total energy  :   -44.2493531 Eh     change       -0.3746784E-04 Eh
   gradient norm :     0.0016889 Eh/α   predicted    -0.2690712E-04 ( -28.19%)
   displ. norm   :     0.0923677 α      lambda       -0.2760399E-04
   maximum displ.:     0.0766208 α      in ANC's #2, #1, #14, ...

........................................................................
.............................. CYCLE    7 ..............................
........................................................................
   1    -44.7451445 -0.447451E+02  0.389E-02    3.86       0.0  T
   2    -44.7451466 -0.209621E-05  0.222E-02    3.86       1.0  T
   3    -44.7451467 -0.110325E-06  0.467E-03    3.87       4.4  T
   4    -44.7451468 -0.479057E-07  0.127E-03    3.87      16.1  T
   5    -44.7451468 -0.143403E-07  0.530E-04    3.87      38.5  T
   6    -44.7451468 -0.369837E-10  0.227E-04    3.87      89.9  T
     SCC iter.                  ...        0 min,  0.005 sec
     gradient                   ...        0 min,  0.006 sec
 * total energy  :   -44.2493773 Eh     change       -0.2415469E-04 Eh
   gradient norm :     0.0018318 Eh/α   predicted    -0.1385562E-04 ( -42.64%)
   displ. norm   :     0.0463562 α      lambda       -0.1086394E-04
   maximum displ.:     0.0388336 α      in ANC's #2, #1, #3, ...

........................................................................
.............................. CYCLE    8 ..............................
........................................................................
   1    -44.7455614 -0.447456E+02  0.154E-02    3.87       0.0  T
   2    -44.7455615 -0.828060E-07  0.902E-03    3.87       2.3  T
   3    -44.7455614  0.592027E-07  0.238E-03    3.87       8.6  T
   4    -44.7455615 -0.849862E-07  0.491E-04    3.87      41.5  T
   5    -44.7455615 -0.127022E-08  0.233E-04    3.87      87.6  T
     SCC iter.                  ...        0 min,  0.004 sec
     gradient                   ...        0 min,  0.006 sec
 * total energy  :   -44.2493908 Eh     change       -0.1355456E-04 Eh
   gradient norm :     0.0012458 Eh/α   predicted    -0.5437825E-05 ( -59.88%)
   displ. norm   :     0.0654994 α      lambda       -0.1235085E-04
   maximum displ.:     0.0514953 α      in ANC's #2, #1, #4, ...

........................................................................
.............................. CYCLE    9 ..............................
........................................................................
   1    -44.7457903 -0.447458E+02  0.208E-02    3.87       0.0  T
   2    -44.7457906 -0.210633E-06  0.122E-02    3.87       1.7  T
   3    -44.7457905  0.963821E-07  0.320E-03    3.87       6.4  T
   4    -44.7457906 -0.148908E-06  0.784E-04    3.87      26.0  T
   5    -44.7457906 -0.342321E-08  0.358E-04    3.87      57.0  T
     SCC iter.                  ...        0 min,  0.005 sec
     gradient                   ...        0 min,  0.006 sec
 * total energy  :   -44.2494056 Eh     change       -0.1483589E-04 Eh
   gradient norm :     0.0008845 Eh/α   predicted    -0.6188249E-05 ( -58.29%)
   displ. norm   :     0.0764821 α      lambda       -0.9862982E-05
   maximum displ.:     0.0587566 α      in ANC's #2, #1, #3, ...

........................................................................
.............................. CYCLE   10 ..............................
........................................................................
   1    -44.7458756 -0.447459E+02  0.235E-02    3.88       0.0  T
   2    -44.7458757 -0.149170E-06  0.137E-02    3.87       1.5  T
   3    -44.7458757  0.539152E-08  0.168E-03    3.87      12.1  T
   4    -44.7458758 -0.403064E-07  0.704E-04    3.87      29.0  T
   5    -44.7458758 -0.344679E-08  0.314E-04    3.87      65.1  T
     SCC iter.                  ...        0 min,  0.004 sec
     gradient                   ...        0 min,  0.006 sec
 * total energy  :   -44.2494183 Eh     change       -0.1268739E-04 Eh
   gradient norm :     0.0011934 Eh/α   predicted    -0.4948535E-05 ( -61.00%)
   displ. norm   :     0.0855474 α      lambda       -0.9525079E-05
   maximum displ.:     0.0638504 α      in ANC's #2, #1, #3, ...

........................................................................
.............................. CYCLE   11 ..............................
........................................................................
   1    -44.7458338 -0.447458E+02  0.272E-02    3.87       0.0  T
   2    -44.7458339 -0.118439E-06  0.159E-02    3.87       1.3  T
   3    -44.7458339 -0.143679E-07  0.135E-03    3.87      15.2  T
   4    -44.7458339 -0.218318E-07  0.622E-04    3.87      32.8  T
   5    -44.7458339 -0.228452E-08  0.288E-04    3.87      71.0  T
     SCC iter.                  ...        0 min,  0.004 sec
     gradient                   ...        0 min,  0.006 sec
 * total energy  :   -44.2494308 Eh     change       -0.1249551E-04 Eh
   gradient norm :     0.0010599 Eh/α   predicted    -0.4779717E-05 ( -61.75%)
   displ. norm   :     0.1043763 α      lambda       -0.9995695E-05
   maximum displ.:     0.0772744 α      in ANC's #2, #1, #3, ...

........................................................................
.............................. CYCLE   12 ..............................
........................................................................
   1    -44.7457788 -0.447458E+02  0.336E-02    3.87       0.0  T
   2    -44.7457790 -0.172097E-06  0.196E-02    3.87       1.0  T
   3    -44.7457790 -0.111804E-07  0.189E-03    3.87      10.8  T
   4    -44.7457790 -0.459456E-07  0.787E-04    3.87      25.9  T
   5    -44.7457790 -0.249753E-08  0.381E-04    3.87      53.5  T
     SCC iter.                  ...        0 min,  0.005 sec
     gradient                   ...        0 min,  0.009 sec
 * total energy  :   -44.2494430 Eh     change       -0.1216264E-04 Eh
   gradient norm :     0.0006744 Eh/α   predicted    -0.5022894E-05 ( -58.70%)
   displ. norm   :     0.1002316 α      lambda       -0.6729343E-05
   maximum displ.:     0.0737611 α      in ANC's #2, #1, #4, ...

........................................................................
.............................. CYCLE   13 ..............................
........................................................................
   1    -44.7457285 -0.447457E+02  0.325E-02    3.87       0.0  T
   2    -44.7457286 -0.146199E-06  0.190E-02    3.87       1.1  T
   3    -44.7457286 -0.122508E-07  0.168E-03    3.87      12.2  T
   4    -44.7457287 -0.361511E-07  0.719E-04    3.87      28.4  T
   5    -44.7457287 -0.219416E-08  0.361E-04    3.87      56.5  T
     SCC iter.                  ...        0 min,  0.004 sec
     gradient                   ...        0 min,  0.006 sec
 * total energy  :   -44.2494508 Eh     change       -0.7777125E-05 Eh
   gradient norm :     0.0005093 Eh/α   predicted    -0.3384382E-05 ( -56.48%)
   displ. norm   :     0.0757552 α      lambda       -0.3239447E-05
   maximum displ.:     0.0560708 α      in ANC's #2, #1, #4, ...

........................................................................
.............................. CYCLE   14 ..............................
........................................................................
   1    -44.7457735 -0.447458E+02  0.246E-02    3.87       0.0  T
   2    -44.7457736 -0.704369E-07  0.143E-02    3.87       1.4  T
   3    -44.7457736 -0.141426E-07  0.103E-03    3.87      19.8  T
   4    -44.7457736 -0.135505E-07  0.507E-04    3.87      40.3  T
   5    -44.7457736 -0.695771E-09  0.222E-04    3.87      91.8  T
     SCC iter.                  ...        0 min,  0.004 sec
     gradient                   ...        0 min,  0.008 sec
 * total energy  :   -44.2494546 Eh     change       -0.3840860E-05 Eh
   gradient norm :     0.0004693 Eh/α   predicted    -0.1625014E-05 ( -57.69%)
   displ. norm   :     0.0648419 α      lambda       -0.2214386E-05
   maximum displ.:     0.0482152 α      in ANC's #2, #1, #3, ...

   *** GEOMETRY OPTIMIZATION CONVERGED AFTER 14 ITERATIONS ***

------------------------------------------------------------------------
 total energy gain   :        -0.0035244 Eh       -2.2116 kcal/mol
 total RMSD          :         0.1779530 a0        0.0942 Å
 total power (kW/mol):        -0.6609458 (step)  -43.9705 (real)
------------------------------------------------------------------------

 ANCopt (total)                0 d,  0 h,  0 min,  0.210 sec
 optimizer setup                ...        0 min,  0.000 sec (  0.081%)
 model hessian                  ...        0 min,  0.006 sec (  2.865%)
 ANC generation                 ...        0 min,  0.000 sec (  0.231%)
 coordinate transformation      ...        0 min,  0.000 sec (  0.065%)
 single point calculation       ...        0 min,  0.199 sec ( 94.677%)
 optimization log               ...        0 min,  0.003 sec (  1.270%)
 hessian update                 ...        0 min,  0.000 sec (  0.059%)
 rational function              ...        0 min,  0.001 sec (  0.403%)

================
 final structure:
================
24
 xtb: 6.4.1 (afa7bdf)
O        -4.30455104001598   -0.46760645945980    0.43219564448624
O         4.34222608047107   -0.50759935560848    0.28381910416529
O        -3.76108985158108    1.46056078632563   -0.57439925086829
N        -2.02590887589254   -1.15211815152840    1.15786002017787
C        -1.18293884136857   -0.00618676230559   -0.89074897116517
C        -2.00030286374304    0.11206739023169    0.39496466395374
C         0.28798839792828   -0.13190363129160   -0.60608412782370
C         1.01616378102695    0.98376735781941   -0.20959090709094
C         0.94297578215062   -1.35457061315844   -0.69855542771592
C         2.35486489233303    0.84984542688475    0.08081441657840
C         2.28783821975324   -1.47524740779931   -0.40349500555447
C        -3.51816515434753    0.41987523600467    0.03640633510134
C         3.02789880295253   -0.36707435916769   -0.00192720149922
H        -1.38258379895040    0.89219780326768   -1.47774397429935
H        -1.53803256787683   -0.86213116178256   -1.46587769457403
H        -1.62882853602042    0.93955388263807    0.99934468575307
H         0.55354652719878    1.95501069035469   -0.13440092919315
H         0.40506268769152   -2.22956829114035   -1.02874954811426
H         2.79608613440269   -2.42210798669733   -0.48006970626883
H        -1.47903848229150   -1.88938478018355    0.70685670773247
H        -3.07441154938623   -1.37393129222553    1.10752582104366
H         4.73458530354417    0.33914539094199    0.54814245266514
H        -1.73883666334877   -1.05176413771886    2.13270921678506
F         3.07250361537019    1.95610342559891    0.46856767572481
 
 Bond Distances (Angstroems)
 ---------------------------
O1-C12=1.2501        O2-C13=1.3524        O2-H22=0.9699        O3-C12=1.2309        N4-C6=1.4768         N4-H20=1.0228        
N4-H21=1.0729        N4-H23=1.0212        C5-C6=1.5281         C5-C7=1.5035         C5-H14=1.0916        C5-H15=1.0906        
C6-N4=1.4768         C6-C5=1.5281         C6-C12=1.5897        C6-H16=1.0900        C7-C5=1.5035         C7-C8=1.3900         
C7-C9=1.3901         C8-C7=1.3900         C8-C10=1.3764        C8-H17=1.0784        C9-C7=1.3901         C9-C11=1.3821        
C9-H18=1.0789        C10-C8=1.3764        C10-C13=1.3931       C10-F24=1.3745       C11-C9=1.3821        C11-C13=1.3918       
C11-H19=1.0774       C12-O1=1.2501        C12-O3=1.2309        C12-C6=1.5897        C13-O2=1.3524        C13-C10=1.3931       
C13-C11=1.3918       H14-C5=1.0916        H15-C5=1.0906        H16-C6=1.0900        H17-C8=1.0784        H18-C9=1.0789        
H19-C11=1.0774       H20-N4=1.0228        H21-N4=1.0729        H22-O2=0.9699        H23-N4=1.0212        F24-C10=1.3745       
 C  H  Rav=1.0845 sigma=0.0063  Rmin=1.0774  Rmax=1.0916     6
 C  C  Rav=1.4383 sigma=0.0753  Rmin=1.3764  Rmax=1.5897     9
 N  H  Rav=1.0389 sigma=0.0240  Rmin=1.0212  Rmax=1.0729     3
 N  C  Rav=1.4768 sigma=0.0000  Rmin=1.4768  Rmax=1.4768     1
 O  H  Rav=0.9699 sigma=0.0000  Rmin=0.9699  Rmax=0.9699     1
 O  C  Rav=1.2778 sigma=0.0533  Rmin=1.2309  Rmax=1.3524     3
 F  C  Rav=1.3745 sigma=0.0000  Rmin=1.3745  Rmax=1.3745     1
 
 selected bond angles (degree)
 --------------------
H22-O2-C13=111.10              H20-N4-C6=112.33               H21-N4-C6= 99.77               H21-N4-H20=110.66              
H23-N4-C6=113.84               H23-N4-H20=109.97              H23-N4-H21=109.87              C7-C5-C6=111.74                
H14-C5-C6=106.91               H14-C5-C7=110.46               H15-C5-C6=109.28               H15-C5-C7=110.66               
H15-C5-H14=107.63              C5-C6-N4=112.19                C12-C6-N4=105.41               C12-C6-C5=109.63               
H16-C6-N4=111.68               H16-C6-C5=110.06               H16-C6-C12=107.67              C8-C7-C5=119.96                
C9-C7-C5=121.46                C9-C7-C8=118.56                C10-C8-C7=119.45               H17-C8-C7=121.20               
H17-C8-C10=119.35              C11-C9-C7=121.40               H18-C9-C7=119.92               H18-C9-C11=118.66              
C13-C10-C8=122.84              F24-C10-C8=119.28              F24-C10-C13=117.88             
 
 selected dihedral angles (degree)
 ---------------------------------
C5-C6-N4-H20=  1.03           C5-C6-N4-H21=243.78           C5-C6-N4-H23=126.84           C12-C6-N4-H20=120.28          
C12-C6-N4-H21=  3.04          C12-C6-N4-H23=246.10          H16-C6-N4-H20=236.92          H16-C6-N4-H21=119.67          
H16-C6-N4-H23=  2.73          N4-C6-C5-C7=289.87            N4-C6-C5-H14=168.90           N4-C6-C5-H15= 52.69           
C12-C6-C5-C7=173.12           C12-C6-C5-H14= 52.14          C12-C6-C5-H15=295.93          H16-C6-C5-C7= 54.87           
H16-C6-C5-H14=293.90          H16-C6-C5-H15=177.69          C8-C7-C5-C6=284.90            C8-C7-C5-H14= 43.79           
C8-C7-C5-H15=162.87           C9-C7-C5-C6=103.33            C9-C7-C5-H14=222.22           C9-C7-C5-H15=341.30           
C10-C8-C7-C5=178.37           C10-C8-C7-C9=359.90           H17-C8-C7-C5=357.77           H17-C8-C7-C9=179.30           
C11-C9-C7-C5=181.68           C11-C9-C7-C8=  0.13           H18-C9-C7-C5=  3.13           H18-C9-C7-C8=181.58           
C13-C10-C8-C7=359.91          C13-C10-C8-H17=180.50         F24-C10-C8-C7=179.80          F24-C10-C8-H17=  0.39         
           -------------------------------------------------
          |                Final Singlepoint                |
           -------------------------------------------------

          ...................................................
          :                      SETUP                      :
          :.................................................:
          :  # basis functions                  66          :
          :  # atomic orbitals                  66          :
          :  # shells                           38          :
          :  # electrons                        76          :
          :  max. iterations                   250          :
          :  Hamiltonian                  GFN2-xTB          :
          :  restarted?                      false          :
          :  GBSA solvation                   true          :
          :  PC potential                    false          :
          :  electronic temp.          300.0000000     K    :
          :  accuracy                    1.0000000          :
          :  -> integral cutoff          0.2500000E+02      :
          :  -> integral neglect         0.1000000E-07      :
          :  -> SCF convergence          0.1000000E-05 Eh   :
          :  -> wf. convergence          0.1000000E-03 e    :
          :  Broyden damping             0.4000000          :
          ...................................................

 iter      E             dE          RMSdq      gap      omega  full diag
   1    -44.7457736 -0.447458E+02  0.648E-05    3.87       0.0  T
   2    -44.7457736 -0.167688E-10  0.411E-05    3.87     496.1  T
   3    -44.7457736 -0.464695E-11  0.277E-05    3.87     736.1  T

   *** convergence criteria satisfied after 3 iterations ***

         #    Occupation            Energy/Eh            Energy/eV
      -------------------------------------------------------------
         1        2.0000           -0.8294082             -22.5693
       ...           ...                  ...                  ...
        32        2.0000           -0.4558620             -12.4046
        33        2.0000           -0.4397769             -11.9669
        34        2.0000           -0.4205495             -11.4437
        35        2.0000           -0.4194450             -11.4137
        36        2.0000           -0.4100271             -11.1574
        37        2.0000           -0.3957113             -10.7679
        38        2.0000           -0.3823214             -10.4035 (HOMO)
        39                         -0.2400439              -6.5319 (LUMO)
        40                         -0.2320677              -6.3149
        41                         -0.1902670              -5.1774
        42                         -0.1077919              -2.9332
        43                         -0.0340251              -0.9259
       ...                                ...                  ...
        66                          0.6513700              17.7247
      -------------------------------------------------------------
                  HL-Gap            0.1422775 Eh            3.8716 eV
             Fermi-level           -0.3111826 Eh           -8.4677 eV

 SCC (total)                   0 d,  0 h,  0 min,  0.015 sec
 SCC setup                      ...        0 min,  0.001 sec (  4.040%)
 Dispersion                     ...        0 min,  0.000 sec (  0.614%)
 classical contributions        ...        0 min,  0.000 sec (  0.174%)
 integral evaluation            ...        0 min,  0.004 sec ( 26.203%)
 iterations                     ...        0 min,  0.004 sec ( 28.254%)
 molecular gradient             ...        0 min,  0.006 sec ( 39.396%)
 printout                       ...        0 min,  0.000 sec (  1.176%)

         :::::::::::::::::::::::::::::::::::::::::::::::::::::
         ::                     SUMMARY                     ::
         :::::::::::::::::::::::::::::::::::::::::::::::::::::
         :: total energy             -44.249454612529 Eh    ::
         :: total w/o Gsasa/hb       -44.239316098736 Eh    ::
         :: gradient norm              0.000472259979 Eh/a0 ::
         :: HOMO-LUMO gap              3.871566852171 eV    ::
         ::.................................................::
         :: SCC energy               -44.745773619639 Eh    ::
         :: -> isotropic ES            0.200168120944 Eh    ::
         :: -> anisotropic ES         -0.013027267193 Eh    ::
         :: -> anisotropic XC          0.006171522275 Eh    ::
         :: -> dispersion             -0.020723461543 Eh    ::
         :: -> Gsolv                  -0.072395459241 Eh    ::
         ::    -> Gelec               -0.062256945448 Eh    ::
         ::    -> Gsasa                0.005243105038 Eh    ::
         ::    -> Ghb                 -0.016462378529 Eh    ::
         ::    -> Gshift               0.001080759698 Eh    ::
         :: repulsion energy           0.496256579928 Eh    ::
         :: add. restraining           0.000000000000 Eh    ::
         :: total charge              -0.000000000000 e     ::
         :::::::::::::::::::::::::::::::::::::::::::::::::::::

           ------------------------------------------------- 
          |                Numerical Hessian                |
           ------------------------------------------------- 
step length          :   0.00500
SCC accuracy         :   0.30000
Hessian scale factor :   1.00000
frozen atoms in %    :   0.00000    0
RMS gradient         :   0.00047
estimated CPU  time      0.03 min
estimated wall time      0.03 min

writing file <hessian>.

 projected vibrational frequencies (cm⁻¹)
eigval :       -0.00    -0.00    -0.00    -0.00     0.00     0.00
eigval :       25.96    35.55    57.69    70.09   143.76   169.49
eigval :      222.98   263.58   285.65   329.86   349.02   362.03
eigval :      410.52   418.68   423.19   428.63   495.63   530.65
eigval :      549.25   581.97   645.49   671.53   697.95   746.89
eigval :      799.08   830.38   852.21   882.78   890.68   914.69
eigval :      927.93   957.63  1017.73  1049.48  1070.98  1115.16
eigval :     1125.42  1148.21  1153.21  1188.95  1193.18  1244.22
eigval :     1256.21  1287.17  1303.47  1318.38  1328.74  1340.76
eigval :     1394.67  1397.54  1425.96  1469.90  1490.11  1572.11
eigval :     1608.12  1735.99  2547.66  2993.77  3002.96  3009.67
eigval :     3094.72  3109.68  3122.59  3299.67  3321.99  3442.32
           -------------------------------------------------
          |                Property Printout                |
           -------------------------------------------------

    * Orbital Energies and Occupations

         #    Occupation            Energy/Eh            Energy/eV
      -------------------------------------------------------------
         1        2.0000           -0.8294081             -22.5693
       ...           ...                  ...                  ...
        26        2.0000           -0.5041011             -13.7173
        27        2.0000           -0.4965449             -13.5117
        28        2.0000           -0.4940267             -13.4432
        29        2.0000           -0.4819452             -13.1144
        30        2.0000           -0.4625022             -12.5853
        31        2.0000           -0.4608746             -12.5410
        32        2.0000           -0.4558619             -12.4046
        33        2.0000           -0.4397768             -11.9669
        34        2.0000           -0.4205495             -11.4437
        35        2.0000           -0.4194450             -11.4137
        36        2.0000           -0.4100271             -11.1574
        37        2.0000           -0.3957112             -10.7679
        38        2.0000           -0.3823213             -10.4035 (HOMO)
        39                         -0.2400439              -6.5319 (LUMO)
        40                         -0.2320676              -6.3149
        41                         -0.1902670              -5.1774
        42                         -0.1077918              -2.9332
        43                         -0.0340251              -0.9259
        44                          0.0092902               0.2528
        45                          0.0445452               1.2121
        46                          0.0587696               1.5992
        47                          0.0666628               1.8140
        48                          0.0910454               2.4775
        49                          0.1155029               3.1430
       ...                                ...                  ...
        66                          0.6513700              17.7247
      -------------------------------------------------------------
                  HL-Gap            0.1422775 Eh            3.8716 eV
             Fermi-level           -0.3111826 Eh           -8.4677 eV

     #   Z          covCN         q      C6AA      α(0)
     1   8 O        0.857    -0.602    26.166     6.858
     2   8 O        1.659    -0.431    21.465     6.254
     3   8 O        0.856    -0.605    26.241     6.868
     4   7 N        3.483    -0.188    25.069     7.436
     5   6 C        3.810    -0.077    21.964     6.671
     6   6 C        3.776    -0.014    20.854     6.506
     7   6 C        2.973     0.007    27.861     8.658
     8   6 C        2.921    -0.060    29.494     8.906
     9   6 C        2.923    -0.052    29.280     8.874
    10   6 C        2.786     0.130    25.146     8.214
    11   6 C        2.923    -0.064    29.590     8.920
    12   6 C        2.682     0.367    20.778     7.459
    13   6 C        2.841     0.135    25.037     8.200
    14   1 H        0.924     0.074     2.047     2.237
    15   1 H        0.924     0.072     2.064     2.247
    16   1 H        0.925     0.082     1.954     2.186
    17   1 H        0.926     0.068     2.111     2.272
    18   1 H        0.926     0.077     2.015     2.220
    19   1 H        0.926     0.080     1.982     2.202
    20   1 H        0.859     0.293     0.736     1.344
    21   1 H        0.854     0.313     0.675     1.288
    22   1 H        0.804     0.376     0.531     1.145
    23   1 H        0.860     0.304     0.700     1.311
    24   9 F        0.785    -0.284    12.139     4.115

 Mol. C6AA /au·bohr⁶  :       6439.259860
 Mol. C8AA /au·bohr⁸  :     150931.008475
 Mol. α(0) /au        :        122.392900


Wiberg/Mayer (AO) data.
largest (>0.10) Wiberg bond orders for each atom

 ---------------------------------------------------------------------------
     #   Z sym  total        # sym  WBO       # sym  WBO       # sym  WBO
 ---------------------------------------------------------------------------
     1   8 O    1.889 --    12 C    1.470     3 O    0.216
     2   8 O    2.103 --    13 C    1.095    22 H    0.839
     3   8 O    1.862 --    12 C    1.559     1 O    0.216
     4   7 N    3.629 --     6 C    0.971    23 H    0.896    20 H    0.896
                            21 H    0.795
     5   6 C    3.988 --     7 C    1.010     6 C    0.981    15 H    0.968
                            14 H    0.958
     6   6 C    3.935 --     5 C    0.981     4 N    0.971    16 H    0.958
                            12 C    0.871
     7   6 C    3.987 --     9 C    1.407     8 C    1.396     5 C    1.010
     8   6 C    3.986 --    10 C    1.427     7 C    1.396    17 H    0.963
                            11 C    0.107
     9   6 C    3.986 --    11 C    1.453     7 C    1.407    18 H    0.963
    10   6 C    3.852 --     8 C    1.427    13 C    1.327    24 F    0.905
    11   6 C    3.983 --     9 C    1.453    13 C    1.360    19 H    0.964
                             8 C    0.107
    12   6 C    3.932 --     3 O    1.559     1 O    1.470     6 C    0.871
    13   6 C    3.943 --    11 C    1.360    10 C    1.327     2 O    1.095
    14   1 H    0.994 --     5 C    0.958
    15   1 H    0.994 --     5 C    0.968
    16   1 H    0.993 --     6 C    0.958
    17   1 H    0.995 --     8 C    0.963
    18   1 H    0.994 --     9 C    0.963
    19   1 H    0.993 --    11 C    0.964
    20   1 H    0.914 --     4 N    0.896
    21   1 H    0.902 --     4 N    0.795
    22   1 H    0.859 --     2 O    0.839
    23   1 H    0.907 --     4 N    0.896
    24   9 F    1.023 --    10 C    0.905
 ---------------------------------------------------------------------------

Topologies differ in total number of bonds
Writing topology from bond orders to xtbtopo.mol

molecular dipole:
                 x           y           z       tot (Debye)
 q only:        3.007      -3.270       1.742
   full:        3.241      -3.003       1.849      12.174
molecular quadrupole (traceless):
                xx          xy          yy          xz          yz          zz
 q only:      -43.959      17.956      18.111     -11.604      -2.876      25.848
  q+dip:      -44.985      19.343      19.349     -10.747      -0.915      25.637
   full:      -46.019      19.849      18.236     -11.545      -1.468      27.783

           -------------------------------------------------
          |                Geometry Summary                 |
           -------------------------------------------------

      molecular mass/u    :      199.1793517
   center of mass at/Å    :        0.0335541       0.0572299       0.0035005
  moments of inertia/u·Å² :        0.2989493E+03   0.1661015E+04   0.1819934E+04
rotational constants/cm⁻¹ :        0.5638960E-01   0.1014899E-01   0.9262772E-02

 * 20 selected distances

     #   Z          #   Z                                           value/Å
     4   7 N        6   6 C                                       1.4767634
     5   6 C        6   6 C                                       1.5281124 (max)
     7   6 C        8   6 C                                       1.3900245
     7   6 C        9   6 C                                       1.3901345
     8   6 C       10   6 C                                       1.3763688
     9   6 C       11   6 C                                       1.3821283
     3   8 O       12   6 C                                       1.2309030
     2   8 O       13   6 C                                       1.3523514
    10   6 C       13   6 C                                       1.3930953
    11   6 C       13   6 C                                       1.3917593
     5   6 C       14   1 H                                       1.0915659
     5   6 C       15   1 H                                       1.0906445
     6   6 C       16   1 H                                       1.0899552
     8   6 C       17   1 H                                       1.0784164
     9   6 C       18   1 H                                       1.0788881
    11   6 C       19   1 H                                       1.0773693
     4   7 N       20   1 H                                       1.0227577
     4   7 N       21   1 H                                       1.0728898
     2   8 O       22   1 H                                       0.9699429 (min)
     4   7 N       23   1 H                                       1.0211818

 * 6 distinct bonds (by element types)

   Z      Z             #   av. dist./Å        max./Å        min./Å
   1 H    6 C           6     1.0844732     1.0915659     1.0773693
   6 C    6 C           7     1.4073747     1.5281124     1.3763688
   1 H    7 N           3     1.0389431     1.0728898     1.0211818
   6 C    7 N           1     1.4767634     1.4767634     1.4767634
   1 H    8 O           1     0.9699429     0.9699429     0.9699429
   6 C    8 O           2     1.2916272     1.3523514     1.2309030

           -------------------------------------------------
          |               Frequency Printout                |
           -------------------------------------------------
 projected vibrational frequencies (cm⁻¹)
eigval :       -0.00    -0.00    -0.00    -0.00     0.00     0.00
eigval :       25.96    35.55    57.69    70.09   143.76   169.49
eigval :      222.98   263.58   285.65   329.86   349.02   362.03
eigval :      410.52   418.68   423.19   428.63   495.63   530.65
eigval :      549.25   581.97   645.49   671.53   697.95   746.89
eigval :      799.08   830.38   852.21   882.78   890.68   914.69
eigval :      927.93   957.63  1017.73  1049.48  1070.98  1115.16
eigval :     1125.42  1148.21  1153.21  1188.95  1193.18  1244.22
eigval :     1256.21  1287.17  1303.47  1318.38  1328.74  1340.76
eigval :     1394.67  1397.54  1425.96  1469.90  1490.11  1572.11
eigval :     1608.12  1735.99  2547.66  2993.77  3002.96  3009.67
eigval :     3094.72  3109.68  3122.59  3299.67  3321.99  3442.32
 reduced masses (amu)
   1: 13.44   2: 13.19   3: 12.80   4: 14.22   5: 13.97   6: 14.20   7: 12.92   8: 13.18
   9: 13.66  10: 13.42  11: 12.89  12: 13.69  13: 12.84  14: 15.74  15: 10.98  16:  2.55
  17: 10.58  18: 11.67  19:  8.34  20:  3.32  21: 10.73  22: 11.71  23: 11.91  24: 12.34
  25: 12.64  26: 11.59  27: 12.02  28: 11.26  29: 12.69  30: 12.82  31: 12.42  32:  5.42
  33:  9.41  34:  3.44  35:  6.63  36:  3.58  37:  5.46  38:  9.81  39:  4.53  40:  6.17
  41:  9.11  42:  6.89  43:  5.25  44:  4.81  45:  5.00  46:  4.01  47:  5.75  48:  3.77
  49:  4.21  50:  8.76  51:  9.17  52:  7.14  53:  8.11  54: 10.22  55:  1.69  56:  2.15
  57: 10.50  58:  2.03  59: 10.51  60: 11.59  61: 11.70  62: 12.91  63:  1.83  64:  1.95
  65:  1.51  66:  1.80  67:  1.82  68:  1.84  69:  1.86  70:  1.79  71:  1.81  72:  1.87
 IR intensities (km·mol⁻¹)
   1:  0.51   2:  1.23   3:  6.76   4:  1.73   5:  3.83   6:  2.55   7: 19.93   8: 30.21
   9: 13.71  10:  0.59  11: 19.19  12:  7.61  13:  2.55  14: 11.93  15:  6.08  16:  1.56
  17: 28.92  18: 97.85  19: 29.58  20:208.26  21:  9.71  22: 15.21  23: 19.62  24: 50.33
  25: 23.29  26:  4.64  27: 22.93  28: 15.28  29: 20.62  30: 65.53  31:154.07  32: 84.04
  33:197.70  34:  8.37  35: 10.61  36:  0.72  37: 45.10  38: 31.15  39:110.32  40:  5.38
  41: 77.98  42:117.40  43:130.72  44:137.94  45: 56.19  46:  7.31  47:119.93  48: 11.63
  49:176.13  50:251.72  51:280.43  52:190.15  53:484.87  54:  5.42  55:120.61  56:170.90
  57: 37.76  58:  3.55  59:373.62  60: 13.83  61: 40.96  62:768.41  63:798.65  64: 11.07
  65: 20.46  66: 32.36  67: 18.17  68: 15.07  69: 15.87  70:106.11  71:133.93  72:198.65
 Raman intensities (amu)
   1:  0.00   2:  0.00   3:  0.00   4:  0.00   5:  0.00   6:  0.00   7:  0.00   8:  0.00
   9:  0.00  10:  0.00  11:  0.00  12:  0.00  13:  0.00  14:  0.00  15:  0.00  16:  0.00
  17:  0.00  18:  0.00  19:  0.00  20:  0.00  21:  0.00  22:  0.00  23:  0.00  24:  0.00
  25:  0.00  26:  0.00  27:  0.00  28:  0.00  29:  0.00  30:  0.00  31:  0.00  32:  0.00
  33:  0.00  34:  0.00  35:  0.00  36:  0.00  37:  0.00  38:  0.00  39:  0.00  40:  0.00
  41:  0.00  42:  0.00  43:  0.00  44:  0.00  45:  0.00  46:  0.00  47:  0.00  48:  0.00
  49:  0.00  50:  0.00  51:  0.00  52:  0.00  53:  0.00  54:  0.00  55:  0.00  56:  0.00
  57:  0.00  58:  0.00  59:  0.00  60:  0.00  61:  0.00  62:  0.00  63:  0.00  64:  0.00
  65:  0.00  66:  0.00  67:  0.00  68:  0.00  69:  0.00  70:  0.00  71:  0.00  72:  0.00
 output can be read by thermo (or use thermo option).
 writing <g98.out> molden fake output.
 recommended (thermochemical) frequency scaling factor: 1.0
           -------------------------------------------------
          |             Thermodynamic Functions             |
           -------------------------------------------------

Molecule has no symmetry elements
It seems to be the C1 point group
c1  symmetry found (for desy threshold:  0.10E+00) used in thermo

          ...................................................
          :                      SETUP                      :
          :.................................................:
          :  # frequencies                          66      :
          :  # imaginary freq.                       0      :
          :  linear?                             false      :
          :  only rotor calc.                    false      :
          :  symmetry                               c1      :
          :  rotational number                       1      :
          :  scaling factor                  1.0000000      :
          :  rotor cutoff                   50.0000000 cm⁻¹ :
          :  imag. cutoff                  -20.0000000 cm⁻¹ :
          :.................................................:

    mode    ω/cm⁻¹     T·S(HO)/kcal·mol⁻¹    T·S(FR)/kcal·mol⁻¹   T·S(vib)
   ------------------------------------------------------------------------
       1     25.96    -1.82362 (  6.77%)    -1.25058 ( 93.23%)    -1.28940
       2     35.55    -1.63768 ( 20.35%)    -1.15748 ( 79.65%)    -1.25522
       3     57.69    -1.35206 ( 63.92%)    -1.01413 ( 36.08%)    -1.23014
       4     70.09    -1.23759 ( 79.43%)    -0.95645 ( 20.57%)    -1.17975
       5    143.76    -0.82087 ( 98.56%)    -0.74366 (  1.44%)    -0.81976
       6    169.49    -0.72781 ( 99.25%)    -0.69488 (  0.75%)    -0.72756
       7    222.98    -0.57686 ( 99.75%)    -0.61364 (  0.25%)    -0.57695
       8    263.58    -0.48835 ( 99.87%)    -0.56408 (  0.13%)    -0.48845
       9    285.65    -0.44711 ( 99.91%)    -0.54026 (  0.09%)    -0.44719
   ------------------------------------------------------------------------

   temp. (K)  partition function   enthalpy   heat capacity  entropy
                                   cal/mol     cal/K/mol   cal/K/mol   J/K/mol
 298.15  VIB  0.485E+05             6514.450     43.759     39.611
         ROT  0.230E+07              888.752      2.981     32.088
         INT  0.111E+12             7403.202     46.740     71.699
         TR   0.272E+28             1481.254      4.968     41.753
         TOT                        8884.4564    51.7082   113.4524   474.6849

       T/K    H(0)-H(T)+PV         H(T)/Eh          T*S/Eh         G(T)/Eh
   ------------------------------------------------------------------------
    298.15    0.141583E-01    0.192202E+00    0.539049E-01    0.138297E+00
   ------------------------------------------------------------------------

         :::::::::::::::::::::::::::::::::::::::::::::::::::::
         ::                  THERMODYNAMIC                  ::
         :::::::::::::::::::::::::::::::::::::::::::::::::::::
         :: total free energy         -44.111157647891 Eh   ::
         ::.................................................::
         :: total energy              -44.249454617921 Eh   ::
         :: zero point energy           0.178043593552 Eh   ::
         :: G(RRHO) w/o ZPVE           -0.039746623521 Eh   ::
         :: G(RRHO) contrib.            0.138296970031 Eh   ::
         :::::::::::::::::::::::::::::::::::::::::::::::::::::

optimized geometry written to: xtbopt.xyz


           -------------------------------------------------
          | TOTAL ENERGY              -44.249454617921 Eh   |
          | TOTAL ENTHALPY            -44.057252741917 Eh   |
          | TOTAL FREE ENERGY         -44.111157647891 Eh   |
          | GRADIENT NORM               0.000472352158 Eh/α |
          | HOMO-LUMO GAP               3.871566684753 eV   |
           -------------------------------------------------

------------------------------------------------------------------------
 * finished run on 2021/11/15 at 09:36:28.565     
------------------------------------------------------------------------
 total:
 * wall-time:     0 d,  0 h,  0 min,  2.210 sec
 *  cpu-time:     0 d,  0 h,  0 min,  2.141 sec
 * ratio c/w:     0.968 speedup
 SCF:
 * wall-time:     0 d,  0 h,  0 min,  0.022 sec
 *  cpu-time:     0 d,  0 h,  0 min,  0.031 sec
 * ratio c/w:     1.424 speedup
 ANC optimizer:
 * wall-time:     0 d,  0 h,  0 min,  0.228 sec
 *  cpu-time:     0 d,  0 h,  0 min,  0.219 sec
 * ratio c/w:     0.959 speedup
 analytical hessian:
 * wall-time:     0 d,  0 h,  0 min,  1.921 sec
 *  cpu-time:     0 d,  0 h,  0 min,  1.875 sec
 * ratio c/w:     0.976 speedup

