 Entering Gaussian System
 *********************************************
 Gaussian 98:
 frequency output generated by the xtb code
 *********************************************
                         Standard orientation:
 --------------------------------------------------------------------
  Center     Atomic     Atomic              Coordinates (Angstroms)
  Number     Number      Type              X           Y           Z
 --------------------------------------------------------------------
    1          8             0       -4.304552   -0.467583    0.432211
    2          8             0        4.342224   -0.507622    0.283805
    3          8             0       -3.761084    1.460579   -0.574389
    4          7             0       -2.025911   -1.152106    1.157869
    5          6             0       -1.182942   -0.006182   -0.890745
    6          6             0       -2.000301    0.112079    0.394971
    7          6             0        0.287986   -0.131906   -0.606085
    8          6             0        1.016168    0.983762   -0.209596
    9          6             0        0.942966   -1.354577   -0.698556
   10          6             0        2.354870    0.849833    0.080805
   11          6             0        2.287829   -1.475260   -0.403500
   12          6             0       -3.518163    0.419894    0.036418
   13          6             0        3.027897   -0.367090   -0.001937
   14          1             0       -1.382584    0.892202   -1.477741
   15          1             0       -1.538042   -0.862126   -1.465871
   16          1             0       -1.628820    0.939564    0.999349
   17          1             0        0.553556    1.955008   -0.134406
   18          1             0        0.405047   -2.229572   -1.028747
   19          1             0        2.796072   -2.422123   -0.480075
   20          1             0       -1.479046   -1.889376    0.706865
   21          1             0       -3.074415   -1.373913    1.107539
   22          1             0        4.734589    0.339122    0.548125
   23          1             0       -1.738835   -1.051751    2.132717
   24          9             0        3.072515    1.956088    0.468554
 --------------------------------------------------------------------
     1 basis functions        1 primitive gaussians
     1 alpha electrons        1 beta electrons
 
 Harmonic frequencies (cm**-1), IR intensities (km*mol⁻¹),
 Raman scattering activities (A**4/amu), Raman depolarization ratios,
 reduced masses (AMU), force constants (mDyne/A) and normal coordinates:
                      1                      2                      3
                        a                      a                      a 
 Frequencies --    25.9594                35.5497                57.6853
 Red. masses --    12.9194                13.1840                13.6596
 Frc consts  --     0.0000                 0.0000                 0.0000
 IR Inten    --    19.9258                30.2087                13.7103
 Raman Activ --     0.0000                 0.0000                 0.0000
 Depolar     --     0.0000                 0.0000                 0.0000
 Atom AN      X      Y      Z        X      Y      Z        X      Y      Z
   1   8     0.03   0.04   0.11    -0.17   0.39   0.09    -0.06  -0.22  -0.60
   2   8     0.05   0.04  -0.19     0.10   0.24  -0.11     0.14   0.05  -0.34
   3   8    -0.07  -0.17  -0.35     0.35   0.19  -0.03    -0.01   0.15   0.12
   4   7     0.06   0.35   0.32    -0.29  -0.24  -0.03    -0.20   0.07   0.19
   5   6    -0.01  -0.11   0.03     0.01  -0.28   0.04    -0.00  -0.02   0.22
   6   6    -0.00   0.15   0.01    -0.01  -0.20   0.02    -0.10   0.05   0.15
   7   6    -0.00  -0.08   0.00     0.02  -0.18   0.03    -0.00  -0.03   0.23
   8   6    -0.06  -0.10   0.17    -0.08  -0.12   0.05     0.02  -0.02   0.17
   9   6     0.07  -0.02  -0.22     0.14  -0.11  -0.01    -0.00  -0.03   0.18
  10   6    -0.04  -0.06   0.12    -0.06   0.01   0.01     0.06  -0.00   0.01
  11   6     0.09   0.02  -0.28     0.16   0.02  -0.05     0.03  -0.01   0.03
  12   6    -0.01  -0.00  -0.08     0.06   0.13   0.02    -0.05  -0.00  -0.10
  13   6     0.03  -0.00  -0.11     0.06   0.08  -0.05     0.07   0.01  -0.09
  14   1    -0.00  -0.07  -0.04    -0.01  -0.10  -0.01     0.01  -0.01   0.05
  15   1    -0.01  -0.06   0.06     0.01  -0.10   0.03     0.00  -0.01   0.07
  16   1    -0.01   0.09  -0.05     0.04  -0.09   0.02    -0.04   0.02   0.04
  17   1    -0.03  -0.04   0.09    -0.05  -0.05   0.02     0.01  -0.01   0.06
  18   1     0.03  -0.00  -0.10     0.06  -0.05  -0.00    -0.01  -0.01   0.07
  19   1     0.04   0.02  -0.13     0.07   0.02  -0.03     0.01  -0.00  -0.01
  20   1     0.03   0.07   0.14    -0.14  -0.10  -0.03     0.03   0.04   0.12
  21   1     0.02   0.07   0.09    -0.10   0.01   0.01    -0.04  -0.03  -0.06
  22   1    -0.00   0.00  -0.00     0.00   0.07  -0.02     0.04   0.01  -0.10
  23   1    -0.00   0.17   0.08    -0.05  -0.10  -0.01    -0.17   0.04   0.08
  24   9    -0.13  -0.10   0.37    -0.20   0.09   0.03     0.12   0.01  -0.11
                      4                      5                      6
                        a                      a                      a 
 Frequencies --    70.0867               143.7593               169.4934
 Red. masses --    13.4201                12.8863                13.6883
 Frc consts  --     0.0000                 0.0000                 0.0000
 IR Inten    --     0.5902                19.1948                 7.6130
 Raman Activ --     0.0000                 0.0000                 0.0000
 Depolar     --     0.0000                 0.0000                 0.0000
 Atom AN      X      Y      Z        X      Y      Z        X      Y      Z
   1   8     0.19  -0.12  -0.26    -0.07  -0.02  -0.11     0.20  -0.00  -0.13
   2   8    -0.11   0.06   0.26    -0.13  -0.15   0.44    -0.17  -0.02  -0.23
   3   8     0.06   0.29   0.43     0.21  -0.11  -0.13     0.52  -0.11  -0.22
   4   7     0.16   0.17   0.13    -0.17  -0.09   0.24     0.18  -0.10   0.09
   5   6    -0.03  -0.20  -0.12    -0.05   0.01   0.22    -0.06   0.11   0.06
   6   6     0.12   0.06  -0.03    -0.03  -0.07   0.25     0.16  -0.03   0.19
   7   6    -0.02  -0.14  -0.18    -0.00   0.10  -0.01    -0.09   0.08  -0.05
   8   6    -0.10  -0.10  -0.17     0.03   0.08  -0.03    -0.10   0.09  -0.07
   9   6     0.05  -0.11  -0.15     0.03   0.14  -0.32    -0.21   0.02   0.12
  10   6    -0.12  -0.03  -0.05     0.05   0.05  -0.10    -0.13   0.04  -0.00
  11   6     0.03  -0.03  -0.04     0.02   0.09  -0.30    -0.22  -0.01   0.11
  12   6     0.11   0.07   0.06     0.03  -0.05   0.02     0.25  -0.03   0.01
  13   6    -0.06  -0.00   0.04    -0.01   0.01  -0.01    -0.18   0.01  -0.03
  14   1    -0.02  -0.09  -0.08    -0.05   0.01   0.08    -0.05   0.05   0.06
  15   1    -0.03  -0.09   0.03    -0.02   0.01   0.06    -0.05   0.05   0.01
  16   1     0.07   0.04  -0.06    -0.02  -0.03   0.09     0.06  -0.02   0.07
  17   1    -0.05  -0.03  -0.06     0.01   0.02   0.01    -0.03   0.03  -0.03
  18   1     0.03  -0.04  -0.05     0.01   0.06  -0.14    -0.08   0.01   0.06
  19   1     0.03  -0.00   0.00     0.00   0.03  -0.11    -0.07  -0.01   0.05
  20   1     0.12   0.06   0.11    -0.03  -0.03   0.08     0.07  -0.01   0.01
  21   1     0.06  -0.01  -0.04    -0.05  -0.02   0.02     0.06  -0.04   0.00
  22   1    -0.05   0.02   0.08    -0.03  -0.05   0.15    -0.03  -0.01  -0.07
  23   1    -0.05   0.11   0.05    -0.09  -0.03   0.08     0.04  -0.04   0.03
  24   9    -0.28   0.02   0.01     0.15   0.05  -0.25    -0.17  -0.01   0.15
                      7                      8                      9
                        a                      a                      a 
 Frequencies --   222.9756               263.5813               285.6486
 Red. masses --    12.8431                15.7401                10.9793
 Frc consts  --     0.0000                 0.0000                 0.0000
 IR Inten    --     2.5506                11.9279                 6.0837
 Raman Activ --     0.0000                 0.0000                 0.0000
 Depolar     --     0.0000                 0.0000                 0.0000
 Atom AN      X      Y      Z        X      Y      Z        X      Y      Z
   1   8     0.12   0.02   0.00     0.01  -0.01  -0.01    -0.07   0.03   0.05
   2   8    -0.05  -0.02   0.00     0.13  -0.53  -0.05    -0.07  -0.37  -0.19
   3   8     0.05   0.02  -0.06    -0.06  -0.01  -0.02     0.11   0.03   0.11
   4   7     0.19   0.01  -0.16    -0.03   0.00  -0.02    -0.01  -0.00   0.12
   5   6     0.02   0.09  -0.02     0.04   0.12   0.08     0.00  -0.35  -0.21
   6   6     0.05   0.08  -0.03    -0.01   0.05   0.07     0.00  -0.20  -0.23
   7   6    -0.05  -0.10   0.19     0.04  -0.05   0.02     0.02   0.19  -0.05
   8   6    -0.17  -0.17   0.54     0.12  -0.10  -0.10    -0.02   0.16   0.16
   9   6     0.00  -0.04  -0.14     0.04  -0.06   0.05    -0.03   0.18  -0.06
  10   6    -0.11  -0.07   0.24     0.13   0.03  -0.04     0.02   0.13   0.16
  11   6    -0.02  -0.03  -0.02     0.06   0.06  -0.03    -0.12   0.11   0.13
  12   6     0.06   0.04  -0.01    -0.01   0.02   0.01     0.01  -0.08  -0.05
  13   6    -0.07  -0.04   0.13     0.15   0.02  -0.02    -0.07   0.07   0.11
  14   1     0.06   0.05   0.01     0.04   0.06   0.05    -0.09  -0.18  -0.15
  15   1    -0.01   0.05  -0.03    -0.02   0.07  -0.01     0.11  -0.20   0.02
  16   1     0.01   0.02   0.00    -0.01   0.01   0.04     0.02  -0.02  -0.12
  17   1    -0.07  -0.06   0.20     0.04  -0.02  -0.03    -0.00   0.05   0.06
  18   1     0.03   0.01  -0.14     0.02  -0.03   0.04    -0.01   0.07  -0.05
  19   1     0.01   0.01  -0.06     0.03   0.02  -0.00    -0.03   0.03   0.04
  20   1     0.05   0.03  -0.08    -0.03   0.00  -0.03     0.04  -0.03   0.13
  21   1     0.06  -0.01  -0.02    -0.01   0.02  -0.00     0.01  -0.03   0.02
  22   1    -0.01  -0.00  -0.01     0.13  -0.19   0.04     0.08  -0.14  -0.04
  23   1     0.08  -0.03  -0.05     0.01  -0.03  -0.01    -0.06   0.10   0.04
  24   9    -0.09   0.15  -0.48    -0.52   0.46   0.05     0.17   0.19  -0.01
                     10                     11                     12
                        a                      a                      a 
 Frequencies --   329.8598               349.0150               362.0252
 Red. masses --     2.5530                10.5820                11.6671
 Frc consts  --     0.0000                 0.0000                 0.0000
 IR Inten    --     1.5602                28.9237                97.8529
 Raman Activ --     0.0000                 0.0000                 0.0000
 Depolar     --     0.0000                 0.0000                 0.0000
 Atom AN      X      Y      Z        X      Y      Z        X      Y      Z
   1   8     0.07  -0.11  -0.18     0.07  -0.07   0.01     0.52  -0.10   0.10
   2   8    -0.05  -0.03   0.00     0.18   0.11  -0.17    -0.15  -0.07  -0.03
   3   8     0.00   0.05   0.09    -0.03  -0.06   0.03    -0.26  -0.06  -0.08
   4   7    -0.02   0.10   0.13    -0.29   0.03   0.16    -0.36   0.00  -0.20
   5   6     0.01  -0.07   0.01    -0.01   0.19  -0.06     0.05  -0.15   0.06
   6   6     0.01   0.01  -0.01     0.05  -0.03   0.07     0.18   0.13   0.09
   7   6     0.00   0.01   0.02     0.05   0.06  -0.35     0.04  -0.02   0.05
   8   6    -0.02   0.03   0.02     0.05  -0.05  -0.06    -0.05   0.05   0.03
   9   6    -0.01   0.01   0.02     0.10   0.07  -0.36    -0.02  -0.03   0.04
  10   6    -0.01   0.03   0.00    -0.00  -0.11   0.16    -0.03   0.09  -0.00
  11   6    -0.01   0.01  -0.03    -0.05  -0.09   0.34    -0.02   0.02  -0.04
  12   6     0.04  -0.03  -0.07     0.05  -0.02   0.03     0.22   0.15   0.06
  13   6    -0.03   0.02  -0.02     0.02  -0.11   0.30    -0.10   0.06  -0.05
  14   1    -0.01  -0.04  -0.03    -0.02   0.11   0.08    -0.00  -0.11  -0.07
  15   1     0.01  -0.04   0.03    -0.04   0.11  -0.07     0.01  -0.11   0.11
  16   1    -0.01   0.02  -0.01     0.02  -0.02   0.03     0.12  -0.02   0.05
  17   1    -0.01   0.01   0.00     0.03  -0.01  -0.01    -0.04   0.00   0.00
  18   1    -0.01   0.00   0.01     0.05   0.04  -0.19    -0.02  -0.01   0.03
  19   1     0.00   0.01  -0.01    -0.04  -0.04   0.14     0.02   0.02  -0.01
  20   1    -0.48  -0.13  -0.27    -0.14  -0.05   0.07    -0.12  -0.02  -0.04
  21   1    -0.08   0.27   0.41    -0.11   0.10   0.02    -0.17   0.13  -0.19
  22   1    -0.00  -0.01  -0.00     0.04   0.06  -0.15    -0.02  -0.03   0.02
  23   1     0.53  -0.11  -0.11    -0.08   0.01   0.04    -0.21  -0.09  -0.01
  24   9     0.04   0.01   0.01    -0.09  -0.01  -0.07     0.10   0.03   0.03
                     13                     14                     15
                        a                      a                      a 
 Frequencies --   410.5228               418.6801               423.1851
 Red. masses --     8.3423                 3.3227                10.7277
 Frc consts  --     0.0000                 0.0000                 0.0000
 IR Inten    --    29.5779               208.2627                 9.7149
 Raman Activ --     0.0000                 0.0000                 0.0000
 Depolar     --     0.0000                 0.0000                 0.0000
 Atom AN      X      Y      Z        X      Y      Z        X      Y      Z
   1   8     0.06  -0.07   0.12    -0.00  -0.00   0.03    -0.07   0.03  -0.02
   2   8    -0.12   0.04   0.01    -0.16  -0.08   0.25    -0.14  -0.02  -0.22
   3   8     0.16  -0.04   0.16     0.02  -0.00   0.03    -0.04   0.01  -0.01
   4   7    -0.26   0.11   0.17    -0.04   0.02   0.03     0.05  -0.02   0.01
   5   6     0.18   0.25  -0.23     0.08   0.06  -0.03     0.07   0.03   0.06
   6   6     0.04  -0.18  -0.27     0.01  -0.04  -0.06    -0.00   0.01   0.04
   7   6     0.06  -0.05   0.07     0.04  -0.06   0.05     0.06  -0.17   0.05
   8   6    -0.01  -0.02   0.10     0.01  -0.02  -0.00     0.05   0.01  -0.35
   9   6    -0.07  -0.12   0.16    -0.01  -0.09   0.02     0.02  -0.20   0.03
  10   6    -0.00   0.04  -0.02     0.00   0.06   0.01    -0.12   0.06   0.47
  11   6    -0.00  -0.03  -0.13     0.02   0.00  -0.12     0.07   0.05  -0.21
  12   6     0.10  -0.16  -0.09     0.01  -0.04  -0.03    -0.04   0.00  -0.00
  13   6    -0.05   0.03  -0.16    -0.05   0.03  -0.07    -0.21   0.03   0.36
  14   1     0.13   0.20   0.10     0.05   0.05   0.04     0.06   0.04   0.05
  15   1     0.05   0.20  -0.25     0.02   0.05  -0.06    -0.02   0.05  -0.02
  16   1    -0.02  -0.02  -0.10    -0.01  -0.00  -0.02    -0.02   0.00   0.02
  17   1    -0.02  -0.02   0.03    -0.02  -0.02  -0.00    -0.00   0.01  -0.31
  18   1    -0.05  -0.03   0.09    -0.01  -0.02   0.01     0.03  -0.05  -0.03
  19   1     0.02   0.00  -0.04     0.03   0.01  -0.04     0.12   0.08  -0.22
  20   1    -0.09  -0.07   0.18    -0.00  -0.01   0.04     0.03   0.01  -0.01
  21   1    -0.10   0.10   0.02    -0.01   0.01   0.00     0.02  -0.03   0.01
  22   1    -0.10  -0.04   0.26     0.18   0.17  -0.86    -0.02  -0.04   0.05
  23   1    -0.12   0.16   0.05    -0.03   0.04   0.01     0.02  -0.01   0.00
  24   9    -0.00   0.04  -0.02     0.03   0.06   0.06     0.22   0.13  -0.04
                     16                     17                     18
                        a                      a                      a 
 Frequencies --   428.6342               495.6346               530.6451
 Red. masses --    11.7086                11.9061                12.3421
 Frc consts  --     0.0000                 0.0000                 0.0000
 IR Inten    --    15.2063                19.6187                50.3311
 Raman Activ --     0.0000                 0.0000                 0.0000
 Depolar     --     0.0000                 0.0000                 0.0000
 Atom AN      X      Y      Z        X      Y      Z        X      Y      Z
   1   8    -0.12   0.05  -0.04    -0.03   0.11  -0.01    -0.15  -0.22   0.14
   2   8    -0.26  -0.07  -0.09    -0.22   0.10  -0.08    -0.05   0.04  -0.05
   3   8    -0.08   0.02  -0.02    -0.20   0.07   0.01     0.47  -0.12   0.14
   4   7     0.09  -0.03   0.02     0.08  -0.09   0.07    -0.15   0.32  -0.31
   5   6     0.08   0.05   0.10     0.38  -0.06   0.19     0.04  -0.02   0.10
   6   6    -0.00   0.02   0.07     0.07  -0.09  -0.03    -0.15   0.26  -0.05
   7   6     0.12  -0.24  -0.10     0.29   0.16   0.20     0.03  -0.03   0.20
   8   6    -0.06  -0.14   0.08     0.13   0.26  -0.01     0.07   0.03  -0.07
   9   6     0.10  -0.25  -0.27     0.07   0.07  -0.11     0.03  -0.01  -0.14
  10   6     0.06   0.29  -0.25     0.03  -0.06  -0.09     0.06   0.02  -0.12
  11   6    -0.02  -0.05   0.28    -0.03  -0.32   0.01    -0.02  -0.09   0.04
  12   6    -0.07   0.02  -0.00    -0.01   0.01  -0.14    -0.06  -0.21   0.08
  13   6    -0.15   0.18  -0.12    -0.20  -0.20   0.01    -0.07  -0.07   0.10
  14   1     0.07   0.05   0.07     0.09  -0.04   0.02     0.04  -0.08  -0.10
  15   1    -0.04   0.07  -0.01     0.17  -0.04   0.06     0.03  -0.08   0.12
  16   1    -0.02   0.00   0.04    -0.03  -0.02   0.02    -0.12   0.12  -0.03
  17   1    -0.14  -0.10   0.10     0.06   0.08  -0.01     0.02   0.01  -0.04
  18   1     0.05  -0.08  -0.09    -0.07   0.09  -0.08     0.01   0.02  -0.10
  19   1     0.05   0.00   0.24    -0.02  -0.10  -0.00     0.00  -0.02   0.00
  20   1     0.04   0.02  -0.02     0.03  -0.03   0.03    -0.04   0.12  -0.13
  21   1     0.04  -0.04   0.02     0.03  -0.04   0.03    -0.06   0.08  -0.11
  22   1    -0.03  -0.06   0.08    -0.12   0.05  -0.00    -0.03   0.02  -0.01
  23   1     0.04  -0.02   0.00     0.02  -0.00   0.02    -0.06   0.01  -0.07
  24   9     0.29   0.16   0.19    -0.29   0.02  -0.03    -0.03   0.04   0.05
                     19                     20                     21
                        a                      a                      a 
 Frequencies --   549.2516               581.9709               645.4887
 Red. masses --    12.6392                11.5932                12.0151
 Frc consts  --     0.0000                 0.0000                 0.0000
 IR Inten    --    23.2928                 4.6350                22.9343
 Raman Activ --     0.0000                 0.0000                 0.0000
 Depolar     --     0.0000                 0.0000                 0.0000
 Atom AN      X      Y      Z        X      Y      Z        X      Y      Z
   1   8    -0.00  -0.01   0.02     0.25   0.01   0.06     0.28  -0.07   0.23
   2   8    -0.05  -0.25  -0.08     0.14   0.03  -0.05     0.01  -0.01   0.07
   3   8     0.02  -0.00   0.02    -0.06   0.13  -0.03     0.06   0.25   0.02
   4   7    -0.01   0.03  -0.01     0.03  -0.09   0.07     0.00  -0.05  -0.00
   5   6     0.07   0.07   0.03    -0.11  -0.02  -0.01    -0.04  -0.01   0.23
   6   6    -0.01   0.01  -0.01    -0.11  -0.14  -0.12    -0.25  -0.05  -0.04
   7   6     0.02  -0.00   0.10    -0.24  -0.12   0.47    -0.04  -0.03   0.05
   8   6    -0.31   0.22  -0.05     0.01  -0.08  -0.09     0.03  -0.00  -0.17
   9   6     0.36   0.15   0.06    -0.10   0.04  -0.17     0.01   0.02  -0.16
  10   6    -0.31   0.03  -0.14     0.12   0.07  -0.39    -0.09  -0.07   0.35
  11   6     0.31   0.11   0.12    -0.12   0.14   0.02    -0.07   0.02   0.17
  12   6     0.00  -0.02  -0.02     0.06   0.04  -0.15    -0.03  -0.10  -0.42
  13   6    -0.01   0.19   0.09    -0.01  -0.04   0.36     0.11   0.10  -0.38
  14   1     0.07   0.07   0.06     0.04   0.05   0.05    -0.01  -0.01   0.06
  15   1    -0.01   0.07  -0.05    -0.01   0.04  -0.09    -0.01  -0.00   0.06
  16   1    -0.02   0.01   0.01    -0.02  -0.04  -0.04    -0.21   0.03   0.02
  17   1    -0.10   0.06  -0.03     0.03  -0.01  -0.10    -0.00  -0.01  -0.03
  18   1     0.13   0.03  -0.00     0.03   0.03  -0.19     0.00  -0.01   0.01
  19   1     0.13   0.05   0.04    -0.03   0.05  -0.09    -0.03  -0.01   0.12
  20   1     0.00   0.01  -0.00     0.02  -0.04   0.05     0.05   0.03  -0.01
  21   1    -0.00   0.01  -0.01     0.01  -0.02   0.04     0.01  -0.05   0.02
  22   1     0.12  -0.12  -0.02     0.03   0.01  -0.02     0.01  -0.01   0.02
  23   1    -0.01   0.01  -0.00     0.02   0.05   0.01     0.02   0.01  -0.01
  24   9    -0.12  -0.44  -0.09     0.02  -0.02   0.11     0.01  -0.02  -0.05
                     22                     23                     24
                        a                      a                      a 
 Frequencies --   671.5350               697.9507               746.8853
 Red. masses --    11.2615                12.6913                12.8210
 Frc consts  --     0.0000                 0.0000                 0.0000
 IR Inten    --    15.2808                20.6170                65.5290
 Raman Activ --     0.0000                 0.0000                 0.0000
 Depolar     --     0.0000                 0.0000                 0.0000
 Atom AN      X      Y      Z        X      Y      Z        X      Y      Z
   1   8     0.14  -0.04   0.17    -0.21   0.26  -0.05    -0.07   0.31  -0.05
   2   8    -0.01   0.01  -0.06     0.12   0.01   0.03     0.01  -0.02   0.00
   3   8     0.04   0.18   0.04    -0.13  -0.17   0.20    -0.14  -0.18   0.21
   4   7    -0.01  -0.03  -0.00     0.02   0.07  -0.06     0.01   0.05  -0.03
   5   6    -0.02   0.03   0.17     0.25  -0.00   0.14    -0.29   0.04  -0.04
   6   6    -0.13   0.01   0.05     0.25   0.06   0.05     0.06   0.04   0.07
   7   6     0.12   0.08  -0.46     0.05  -0.04  -0.02    -0.19  -0.00   0.07
   8   6    -0.05  -0.04   0.19     0.03  -0.11  -0.02    -0.13   0.07  -0.02
   9   6    -0.02  -0.07   0.23    -0.25  -0.08  -0.07     0.16   0.10   0.04
  10   6     0.05   0.05  -0.24    -0.01   0.01   0.01    -0.05  -0.01  -0.02
  11   6     0.09   0.02  -0.23    -0.25   0.38   0.02     0.17  -0.33   0.01
  12   6    -0.05  -0.12  -0.36     0.24  -0.26  -0.23     0.37  -0.27  -0.28
  13   6    -0.10  -0.08   0.38     0.06   0.15   0.04     0.01  -0.14  -0.06
  14   1    -0.08  -0.03   0.02     0.05  -0.04  -0.02    -0.09   0.02   0.00
  15   1    -0.03  -0.02   0.10     0.07  -0.04   0.10    -0.14   0.02   0.01
  16   1    -0.18   0.04   0.05    -0.02   0.04   0.04    -0.03   0.04   0.01
  17   1    -0.04  -0.03   0.13    -0.02  -0.04  -0.01    -0.02   0.03  -0.04
  18   1    -0.02  -0.04   0.13    -0.03  -0.04  -0.01     0.03   0.05  -0.03
  19   1     0.03   0.01  -0.05    -0.06   0.11   0.01     0.02  -0.10  -0.05
  20   1     0.03   0.04  -0.03    -0.02  -0.00  -0.01     0.01   0.02  -0.02
  21   1     0.00  -0.03  -0.00    -0.01   0.06  -0.05    -0.01   0.02  -0.03
  22   1     0.00   0.00  -0.02     0.06  -0.01   0.01    -0.02   0.01  -0.00
  23   1     0.00  -0.02  -0.00    -0.04  -0.04   0.00    -0.02  -0.03   0.00
  24   9     0.00   0.00   0.00    -0.09  -0.23  -0.07     0.14   0.25   0.09
                     25                     26                     27
                        a                      a                      a 
 Frequencies --   799.0834               830.3826               852.2074
 Red. masses --    12.4200                 5.4234                 9.4108
 Frc consts  --     0.0000                 0.0000                 0.0000
 IR Inten    --   154.0745                84.0444               197.7006
 Raman Activ --     0.0000                 0.0000                 0.0000
 Depolar     --     0.0000                 0.0000                 0.0000
 Atom AN      X      Y      Z        X      Y      Z        X      Y      Z
   1   8     0.03   0.08  -0.03    -0.06  -0.10   0.09     0.15   0.17  -0.14
   2   8    -0.52   0.06  -0.11    -0.03  -0.01   0.04     0.07  -0.01   0.03
   3   8    -0.03  -0.06   0.04     0.04   0.13  -0.03    -0.05  -0.20   0.04
   4   7    -0.01  -0.02   0.01     0.02  -0.05   0.06    -0.12   0.01  -0.03
   5   6    -0.16   0.04  -0.05     0.02   0.07  -0.11     0.03  -0.00   0.12
   6   6    -0.08   0.00  -0.01     0.20   0.06   0.11    -0.46  -0.06  -0.15
   7   6    -0.07   0.04   0.02     0.01   0.02  -0.08     0.14   0.04  -0.16
   8   6     0.39  -0.33   0.02    -0.02  -0.05   0.15    -0.01   0.08   0.05
   9   6     0.20   0.19   0.08    -0.03  -0.05   0.21    -0.09  -0.16   0.09
  10   6     0.26  -0.08   0.04     0.02   0.01  -0.08    -0.00   0.05  -0.01
  11   6     0.12   0.20   0.08    -0.04  -0.05   0.26    -0.06  -0.03   0.12
  12   6     0.12  -0.03  -0.01    -0.19  -0.04  -0.16     0.33   0.07   0.28
  13   6    -0.07   0.10  -0.00     0.04   0.04  -0.18     0.02   0.04  -0.06
  14   1    -0.07  -0.01  -0.04    -0.05  -0.03  -0.08    -0.01  -0.01   0.02
  15   1    -0.02  -0.02   0.02    -0.01  -0.03   0.06     0.05  -0.00   0.01
  16   1    -0.02   0.01  -0.01     0.05   0.00   0.05    -0.19   0.01  -0.04
  17   1     0.22  -0.04   0.04     0.07   0.05  -0.29    -0.02   0.02  -0.03
  18   1     0.13   0.01   0.03     0.12   0.11  -0.46     0.03   0.02  -0.24
  19   1     0.09   0.09   0.02     0.12   0.10  -0.47     0.08   0.07  -0.25
  20   1     0.02   0.01  -0.01    -0.04  -0.04   0.01     0.11   0.12  -0.04
  21   1     0.00  -0.02   0.01    -0.01   0.04  -0.03     0.02  -0.16   0.10
  22   1    -0.09  -0.00  -0.02    -0.00  -0.00   0.01     0.03  -0.01   0.01
  23   1     0.01   0.01  -0.00    -0.05  -0.09   0.04     0.13   0.14  -0.07
  24   9    -0.13  -0.16  -0.06    -0.01  -0.01   0.02    -0.03  -0.05  -0.01
                     28                     29                     30
                        a                      a                      a 
 Frequencies --   882.7820               890.6760               914.6896
 Red. masses --     3.4395                 6.6261                 3.5807
 Frc consts  --     0.0000                 0.0000                 0.0000
 IR Inten    --     8.3714                10.6113                 0.7211
 Raman Activ --     0.0000                 0.0000                 0.0000
 Depolar     --     0.0000                 0.0000                 0.0000
 Atom AN      X      Y      Z        X      Y      Z        X      Y      Z
   1   8     0.03   0.02  -0.01     0.02   0.01  -0.00    -0.00   0.00  -0.01
   2   8     0.02  -0.00   0.00     0.05  -0.00   0.01    -0.00  -0.00   0.01
   3   8    -0.00  -0.02   0.01     0.01  -0.01   0.01    -0.00  -0.01  -0.00
   4   7    -0.03  -0.07   0.05    -0.02  -0.28   0.15     0.03  -0.00  -0.05
   5   6     0.01   0.10  -0.06     0.03   0.44  -0.27     0.00   0.04   0.07
   6   6    -0.09   0.05  -0.00    -0.07   0.18  -0.02     0.00  -0.02  -0.03
   7   6     0.03   0.01  -0.00     0.00  -0.01   0.14    -0.01   0.00  -0.03
   8   6    -0.08  -0.04   0.36     0.01   0.04  -0.13    -0.05  -0.05   0.15
   9   6     0.00  -0.06  -0.07    -0.00  -0.14  -0.06     0.08   0.08  -0.32
  10   6     0.01   0.03  -0.02    -0.03   0.04   0.02     0.00   0.01  -0.07
  11   6     0.05   0.03  -0.17     0.04  -0.06  -0.01    -0.06  -0.06   0.25
  12   6     0.04  -0.00   0.02     0.04  -0.01   0.01     0.00   0.01   0.02
  13   6     0.00   0.02  -0.03    -0.02   0.03   0.03     0.00  -0.01  -0.00
  14   1    -0.04  -0.04  -0.10    -0.08  -0.16  -0.46    -0.02  -0.01  -0.01
  15   1     0.03  -0.04   0.07     0.08  -0.17   0.30     0.01  -0.01   0.04
  16   1    -0.05   0.01   0.02    -0.13  -0.00   0.14    -0.01  -0.02   0.01
  17   1     0.16   0.14  -0.73    -0.10  -0.06   0.21     0.03   0.03  -0.21
  18   1    -0.01  -0.03   0.03    -0.01  -0.06   0.04    -0.14  -0.15   0.64
  19   1    -0.07  -0.08   0.41     0.07   0.01   0.01     0.10   0.09  -0.49
  20   1     0.02   0.01   0.00    -0.02  -0.13   0.12    -0.02  -0.07   0.06
  21   1     0.01  -0.04   0.03    -0.00  -0.04   0.06    -0.00   0.02   0.01
  22   1     0.01  -0.00  -0.00     0.03  -0.01   0.00     0.00   0.00  -0.01
  23   1     0.02  -0.00   0.00    -0.00   0.02   0.03     0.00   0.08  -0.02
  24   9    -0.02  -0.03   0.01    -0.01  -0.03  -0.02     0.01   0.01   0.01
                     31                     32                     33
                        a                      a                      a 
 Frequencies --   927.9346               957.6264              1017.7268
 Red. masses --     5.4637                 9.8079                 4.5297
 Frc consts  --     0.0000                 0.0000                 0.0000
 IR Inten    --    45.0960                31.1537               110.3164
 Raman Activ --     0.0000                 0.0000                 0.0000
 Depolar     --     0.0000                 0.0000                 0.0000
 Atom AN      X      Y      Z        X      Y      Z        X      Y      Z
   1   8     0.02   0.02   0.04     0.02   0.00  -0.01     0.01  -0.03   0.05
   2   8     0.02   0.00   0.01    -0.07  -0.01  -0.02    -0.01  -0.00  -0.00
   3   8     0.00   0.02   0.02     0.01  -0.02  -0.00     0.01   0.03   0.02
   4   7    -0.11  -0.05   0.30    -0.06  -0.08   0.11    -0.39  -0.05  -0.09
   5   6     0.03  -0.14  -0.34     0.39   0.01   0.01     0.03  -0.03  -0.09
   6   6    -0.12   0.18   0.13    -0.07   0.10  -0.04     0.18   0.12   0.16
   7   6     0.07  -0.00   0.06    -0.14  -0.06  -0.10    -0.00  -0.02   0.03
   8   6     0.06   0.13   0.03    -0.19  -0.35  -0.10     0.01   0.02  -0.00
   9   6    -0.03  -0.07  -0.10     0.09   0.42   0.12     0.00   0.03  -0.01
  10   6     0.05   0.04   0.01    -0.16  -0.16  -0.07     0.00  -0.00  -0.00
  11   6    -0.04   0.01   0.03    -0.05   0.07   0.00    -0.01   0.02   0.00
  12   6     0.04  -0.05  -0.07     0.02   0.03   0.08    -0.06  -0.09  -0.13
  13   6    -0.01   0.01   0.01     0.07  -0.12  -0.01     0.01  -0.01   0.00
  14   1     0.09   0.04  -0.01     0.21  -0.03  -0.08     0.07  -0.00  -0.03
  15   1    -0.00   0.05  -0.22     0.13  -0.02   0.02    -0.08   0.01   0.00
  16   1    -0.01   0.13  -0.09    -0.13   0.05   0.02     0.29  -0.14   0.12
  17   1     0.04   0.04   0.04    -0.14  -0.14  -0.08     0.00   0.01   0.02
  18   1    -0.05  -0.06   0.14     0.05   0.11   0.02    -0.01   0.00   0.03
  19   1     0.04   0.04  -0.07    -0.24  -0.09  -0.07    -0.02  -0.00  -0.01
  20   1     0.10   0.32  -0.32     0.04   0.07  -0.05     0.26   0.23  -0.00
  21   1     0.03  -0.14  -0.07     0.01  -0.08   0.02     0.05  -0.35   0.27
  22   1     0.01   0.00  -0.00    -0.07   0.02  -0.01    -0.01   0.00  -0.00
  23   1    -0.02  -0.49   0.13     0.02  -0.10   0.03     0.32   0.36  -0.18
  24   9    -0.05  -0.06  -0.02     0.15   0.19   0.07    -0.00   0.00  -0.00
                     34                     35                     36
                        a                      a                      a 
 Frequencies --  1049.4770              1070.9753              1115.1640
 Red. masses --     6.1716                 9.1109                 6.8907
 Frc consts  --     0.0000                 0.0000                 0.0000
 IR Inten    --     5.3776                77.9811               117.3966
 Raman Activ --     0.0000                 0.0000                 0.0000
 Depolar     --     0.0000                 0.0000                 0.0000
 Atom AN      X      Y      Z        X      Y      Z        X      Y      Z
   1   8    -0.02   0.00   0.00    -0.00   0.00   0.00    -0.02  -0.01   0.01
   2   8    -0.03  -0.01  -0.01     0.16   0.04   0.05    -0.09   0.12   0.00
   3   8     0.03  -0.03   0.03     0.01  -0.01   0.01     0.03  -0.03   0.02
   4   7     0.07  -0.30   0.00     0.01  -0.07   0.00    -0.06  -0.19   0.12
   5   6    -0.04  -0.25  -0.02    -0.04  -0.08  -0.00    -0.02   0.07   0.30
   6   6    -0.11   0.44  -0.07    -0.03   0.12  -0.02     0.04   0.28  -0.37
   7   6     0.07  -0.07  -0.07     0.02   0.01  -0.01    -0.10   0.09  -0.04
   8   6     0.02   0.17   0.05     0.14  -0.24  -0.01    -0.07  -0.09  -0.03
   9   6    -0.01   0.01   0.01    -0.01   0.22   0.04    -0.05  -0.08  -0.02
  10   6     0.01  -0.06  -0.01     0.14   0.48   0.13    -0.08  -0.16  -0.04
  11   6    -0.04   0.12   0.02     0.02  -0.30  -0.05     0.03  -0.12  -0.01
  12   6     0.04  -0.03  -0.01     0.01  -0.01  -0.01    -0.01  -0.04  -0.01
  13   6     0.03  -0.06  -0.01    -0.20   0.16  -0.02     0.05   0.13   0.04
  14   1     0.42   0.03  -0.01     0.09   0.01   0.01    -0.08   0.01   0.08
  15   1    -0.38   0.12  -0.05    -0.09   0.03  -0.03     0.14  -0.01   0.04
  16   1    -0.05   0.08   0.05     0.02   0.02  -0.00     0.36   0.05  -0.27
  17   1     0.14   0.11   0.04    -0.24  -0.19  -0.10     0.19   0.07   0.06
  18   1    -0.01   0.02  -0.02    -0.24   0.22  -0.01    -0.10   0.03  -0.02
  19   1    -0.02   0.03  -0.01    -0.09  -0.13  -0.05     0.10   0.01   0.02
  20   1    -0.10  -0.28   0.20    -0.02  -0.06   0.04     0.01  -0.00  -0.02
  21   1    -0.00   0.05   0.05     0.00   0.00   0.01     0.03  -0.08   0.03
  22   1    -0.08   0.03  -0.01     0.23  -0.09   0.03     0.36  -0.17   0.05
  23   1    -0.05   0.11  -0.00    -0.01   0.02  -0.00     0.00  -0.11   0.03
  24   9     0.00   0.02   0.00    -0.12  -0.22  -0.07     0.06   0.06   0.03
                     37                     38                     39
                        a                      a                      a 
 Frequencies --  1125.4219              1148.2122              1153.2095
 Red. masses --     5.2460                 4.8129                 5.0017
 Frc consts  --     0.0000                 0.0000                 0.0000
 IR Inten    --   130.7172               137.9449                56.1861
 Raman Activ --     0.0000                 0.0000                 0.0000
 Depolar     --     0.0000                 0.0000                 0.0000
 Atom AN      X      Y      Z        X      Y      Z        X      Y      Z
   1   8    -0.01  -0.00   0.00     0.03   0.01  -0.03     0.01  -0.00  -0.02
   2   8     0.15  -0.18  -0.00     0.13  -0.08   0.01    -0.12   0.08  -0.01
   3   8     0.02  -0.02   0.02     0.00  -0.02  -0.02     0.00  -0.01  -0.02
   4   7    -0.03  -0.11   0.09    -0.13  -0.05   0.05    -0.11  -0.05   0.07
   5   6    -0.13   0.09   0.20     0.03  -0.02   0.08    -0.13   0.04   0.08
   6   6     0.01   0.17  -0.27     0.37  -0.07  -0.21     0.34  -0.07  -0.27
   7   6     0.07  -0.03  -0.01    -0.14   0.02  -0.00     0.10  -0.08   0.04
   8   6     0.03   0.05   0.02    -0.00  -0.09  -0.02     0.04   0.15   0.04
   9   6     0.06   0.04   0.03    -0.09   0.07  -0.01     0.09  -0.05   0.01
  10   6     0.06   0.18   0.05    -0.04   0.02  -0.01     0.07   0.06   0.03
  11   6     0.00   0.12   0.03     0.08  -0.04   0.01    -0.06   0.04  -0.01
  12   6    -0.00  -0.03  -0.02    -0.08   0.06   0.11    -0.06   0.05   0.09
  13   6    -0.07  -0.15  -0.05    -0.11   0.01  -0.02     0.08  -0.02   0.02
  14   1    -0.14   0.00   0.05     0.02   0.00   0.03    -0.08   0.01   0.03
  15   1     0.06  -0.01   0.04    -0.18   0.02   0.10    -0.27   0.02   0.14
  16   1     0.30   0.01  -0.20    -0.41   0.19  -0.03    -0.30   0.15  -0.06
  17   1    -0.27  -0.11  -0.08     0.13   0.04   0.03    -0.06   0.01  -0.01
  18   1     0.18  -0.09   0.01    -0.24   0.15  -0.01     0.24  -0.16   0.02
  19   1    -0.02   0.02  -0.00     0.42   0.19   0.14    -0.46  -0.21  -0.15
  20   1    -0.00   0.00  -0.02     0.08   0.10  -0.03     0.07   0.10  -0.05
  21   1     0.02  -0.05   0.02    -0.00  -0.08   0.02    -0.00  -0.05   0.00
  22   1    -0.53   0.25  -0.07    -0.21   0.10  -0.03     0.19  -0.09   0.02
  23   1    -0.01  -0.08   0.03     0.08  -0.04  -0.01     0.06  -0.05  -0.00
  24   9    -0.05  -0.06  -0.02     0.02   0.01   0.00    -0.04  -0.03  -0.01
                     40                     41                     42
                        a                      a                      a 
 Frequencies --  1188.9528              1193.1769              1244.2154
 Red. masses --     4.0085                 5.7541                 3.7692
 Frc consts  --     0.0000                 0.0000                 0.0000
 IR Inten    --     7.3060               119.9304                11.6282
 Raman Activ --     0.0000                 0.0000                 0.0000
 Depolar     --     0.0000                 0.0000                 0.0000
 Atom AN      X      Y      Z        X      Y      Z        X      Y      Z
   1   8     0.01   0.01  -0.01    -0.00  -0.00  -0.00    -0.02  -0.02   0.01
   2   8    -0.01   0.01   0.00     0.21  -0.06   0.04     0.01  -0.10  -0.02
   3   8     0.00   0.00  -0.00    -0.00  -0.00  -0.00    -0.01   0.03  -0.01
   4   7    -0.04  -0.21  -0.09    -0.00  -0.01  -0.01    -0.00  -0.04  -0.02
   5   6     0.04  -0.16  -0.13     0.14   0.00   0.04    -0.01   0.06  -0.06
   6   6     0.10   0.31   0.19    -0.00  -0.00   0.04    -0.05   0.00   0.07
   7   6    -0.02   0.10   0.06    -0.33  -0.03  -0.10     0.20  -0.19   0.04
   8   6    -0.02  -0.03  -0.02     0.01  -0.05  -0.01    -0.05  -0.10  -0.03
   9   6     0.01  -0.05  -0.01     0.02   0.01   0.01     0.12  -0.10   0.01
  10   6     0.03  -0.04  -0.00    -0.05   0.30   0.05    -0.18   0.07  -0.03
  11   6    -0.03  -0.02  -0.01    -0.00  -0.15  -0.03     0.09   0.09   0.04
  12   6    -0.02  -0.01   0.02    -0.00   0.01   0.00     0.04  -0.00  -0.00
  13   6     0.00   0.00   0.00    -0.28   0.08  -0.05     0.08   0.18   0.06
  14   1    -0.39   0.08   0.27     0.12   0.00  -0.01    -0.25   0.00   0.05
  15   1     0.35  -0.02  -0.26     0.18  -0.04  -0.02     0.00  -0.02   0.02
  16   1    -0.28   0.33  -0.10    -0.02   0.02  -0.01     0.03   0.09  -0.13
  17   1    -0.12  -0.06  -0.03     0.50   0.22   0.16     0.34   0.13   0.11
  18   1     0.11  -0.08   0.01     0.37  -0.23   0.03    -0.44   0.28  -0.03
  19   1     0.03   0.01   0.01    -0.12  -0.10  -0.05    -0.36  -0.17  -0.12
  20   1    -0.00  -0.14   0.13     0.00  -0.01   0.01     0.02  -0.01   0.01
  21   1    -0.01   0.01   0.04    -0.00   0.00  -0.00    -0.02   0.03  -0.01
  22   1     0.02  -0.01   0.00    -0.07   0.04  -0.01    -0.25   0.11  -0.04
  23   1     0.06   0.18  -0.07     0.01   0.03  -0.01     0.02   0.03  -0.02
  24   9     0.00   0.00   0.00    -0.02  -0.06  -0.02     0.02  -0.00   0.00
                     43                     44                     45
                        a                      a                      a 
 Frequencies --  1256.2114              1287.1687              1303.4711
 Red. masses --     4.2054                 8.7591                 9.1684
 Frc consts  --     0.0000                 0.0000                 0.0000
 IR Inten    --   176.1339               251.7189               280.4349
 Raman Activ --     0.0000                 0.0000                 0.0000
 Depolar     --     0.0000                 0.0000                 0.0000
 Atom AN      X      Y      Z        X      Y      Z        X      Y      Z
   1   8    -0.14  -0.12   0.05    -0.32  -0.29   0.12    -0.07  -0.06   0.02
   2   8    -0.03   0.01  -0.01     0.04   0.01   0.01    -0.24  -0.02  -0.06
   3   8    -0.04   0.12  -0.07    -0.07   0.25  -0.15    -0.01   0.04  -0.02
   4   7    -0.03  -0.20   0.01     0.02  -0.08   0.07    -0.01  -0.00   0.05
   5   6    -0.13   0.10   0.09     0.23  -0.06  -0.08    -0.01  -0.05   0.10
   6   6     0.01  -0.19   0.23    -0.09   0.09  -0.14     0.08   0.09  -0.13
   7   6    -0.00   0.00  -0.05    -0.03  -0.00   0.04    -0.33  -0.00  -0.10
   8   6     0.01   0.03   0.01     0.00  -0.02  -0.01    -0.01   0.14   0.03
   9   6    -0.03   0.01  -0.01    -0.00   0.05   0.01    -0.23  -0.13  -0.08
  10   6     0.02   0.00   0.01    -0.01   0.00  -0.00     0.13   0.19   0.07
  11   6     0.02   0.00   0.01    -0.04  -0.02  -0.01     0.32  -0.05   0.07
  12   6     0.16   0.03  -0.01     0.43   0.02   0.04     0.07   0.01   0.01
  13   6     0.04  -0.04   0.00    -0.06  -0.03  -0.02     0.43   0.00   0.10
  14   1     0.33  -0.05  -0.20    -0.30   0.05   0.19     0.13  -0.01  -0.02
  15   1     0.08  -0.01  -0.00    -0.24   0.01   0.12     0.27  -0.02  -0.14
  16   1     0.05   0.31  -0.46     0.03  -0.16   0.19    -0.09  -0.14   0.26
  17   1    -0.07  -0.02  -0.02     0.02  -0.00   0.01    -0.07   0.02  -0.02
  18   1    -0.00  -0.00  -0.00     0.07  -0.03   0.01    -0.15   0.01  -0.03
  19   1     0.03   0.01   0.01     0.06   0.03   0.02    -0.08  -0.11  -0.04
  20   1     0.19   0.11  -0.01     0.15   0.11  -0.00     0.05   0.04   0.02
  21   1    -0.15   0.32  -0.16    -0.09   0.24  -0.11    -0.02   0.06  -0.05
  22   1     0.01  -0.01   0.00     0.03  -0.01   0.01    -0.14   0.04  -0.02
  23   1     0.18   0.17  -0.08     0.11   0.02  -0.02     0.06  -0.03  -0.00
  24   9    -0.01  -0.00  -0.00     0.00   0.01   0.00    -0.05  -0.08  -0.03
                     46                     47                     48
                        a                      a                      a 
 Frequencies --  1318.3849              1328.7394              1340.7611
 Red. masses --     7.1387                 8.1097                10.2247
 Frc consts  --     0.0000                 0.0000                 0.0000
 IR Inten    --   190.1511               484.8664                 5.4172
 Raman Activ --     0.0000                 0.0000                 0.0000
 Depolar     --     0.0000                 0.0000                 0.0000
 Atom AN      X      Y      Z        X      Y      Z        X      Y      Z
   1   8    -0.03  -0.01  -0.00     0.21   0.24  -0.11    -0.05  -0.05   0.02
   2   8     0.12  -0.03   0.02    -0.02   0.02  -0.00     0.05   0.05   0.02
   3   8     0.02  -0.04   0.02     0.10  -0.30   0.18    -0.01   0.05  -0.03
   4   7    -0.01  -0.06   0.10     0.02  -0.16   0.08    -0.01   0.02   0.01
   5   6    -0.35  -0.04   0.09     0.16  -0.02  -0.07    -0.23   0.03   0.05
   6   6     0.11   0.09  -0.16    -0.12   0.03  -0.02     0.07   0.05  -0.05
   7   6     0.23   0.17   0.05    -0.05  -0.11  -0.01     0.18  -0.39  -0.05
   8   6    -0.10  -0.14  -0.05     0.07   0.04   0.02     0.29   0.07   0.08
   9   6     0.23  -0.08   0.04    -0.09   0.06  -0.01    -0.18   0.22   0.01
  10   6     0.01  -0.17  -0.03    -0.06   0.06  -0.00    -0.35   0.09  -0.06
  11   6    -0.22  -0.01  -0.05     0.08   0.03   0.02     0.16   0.19   0.08
  12   6    -0.01   0.03  -0.02    -0.39   0.06  -0.09     0.08  -0.01   0.02
  13   6    -0.17   0.20  -0.00     0.01  -0.11  -0.02    -0.17  -0.36  -0.11
  14   1     0.17  -0.03  -0.09    -0.15   0.02   0.09    -0.02  -0.02  -0.05
  15   1     0.26   0.01  -0.22    -0.10  -0.01   0.07     0.26  -0.02  -0.14
  16   1    -0.11  -0.19   0.34     0.08  -0.09   0.06    -0.07  -0.04   0.11
  17   1     0.04  -0.01  -0.00     0.01   0.01   0.01     0.07   0.01   0.01
  18   1    -0.01   0.03  -0.00     0.01  -0.01   0.00    -0.01   0.04   0.00
  19   1    -0.05   0.00  -0.01     0.02   0.01   0.01     0.03   0.05   0.02
  20   1     0.15   0.12   0.00     0.23   0.15   0.01    -0.02  -0.01   0.00
  21   1    -0.08   0.21  -0.14    -0.15   0.45  -0.20     0.02  -0.05  -0.01
  22   1    -0.05   0.03  -0.01     0.05  -0.02   0.01     0.20  -0.09   0.03
  23   1     0.13   0.00  -0.02     0.17   0.06  -0.05     0.01  -0.01   0.00
  24   9     0.03   0.03   0.01    -0.00  -0.00  -0.00     0.02   0.05   0.02
                     49                     50                     51
                        a                      a                      a 
 Frequencies --  1394.6688              1397.5424              1425.9633
 Red. masses --     1.6887                 2.1529                10.4951
 Frc consts  --     0.0000                 0.0000                 0.0000
 IR Inten    --   120.6051               170.8959                37.7605
 Raman Activ --     0.0000                 0.0000                 0.0000
 Depolar     --     0.0000                 0.0000                 0.0000
 Atom AN      X      Y      Z        X      Y      Z        X      Y      Z
   1   8    -0.00   0.02   0.03    -0.01  -0.01  -0.00    -0.00  -0.00  -0.00
   2   8    -0.00   0.00  -0.00    -0.01  -0.01  -0.00    -0.03   0.08   0.01
   3   8     0.00  -0.01   0.01     0.01  -0.01   0.01     0.00  -0.00   0.00
   4   7    -0.03   0.07   0.20     0.13  -0.20   0.14     0.01  -0.02   0.00
   5   6     0.03   0.00  -0.00     0.01  -0.01   0.02     0.03   0.07   0.03
   6   6    -0.02   0.00   0.01     0.05   0.02  -0.03     0.01   0.01  -0.01
   7   6    -0.01  -0.01  -0.00     0.01   0.02   0.01    -0.16  -0.35  -0.11
   8   6    -0.02   0.01  -0.00     0.01  -0.02  -0.00    -0.31   0.19  -0.04
   9   6     0.01   0.00   0.00    -0.04   0.01  -0.01     0.35   0.00   0.08
  10   6     0.02   0.00   0.01    -0.03   0.01  -0.01     0.46   0.09   0.13
  11   6    -0.01  -0.00  -0.00     0.02  -0.02   0.00    -0.27   0.14  -0.03
  12   6    -0.01   0.00  -0.02    -0.00   0.01  -0.00    -0.00   0.00   0.00
  13   6     0.00  -0.00  -0.00     0.03   0.02   0.01    -0.05  -0.28  -0.07
  14   1    -0.02  -0.00   0.00    -0.04  -0.04  -0.04    -0.06  -0.00   0.00
  15   1    -0.03   0.00   0.01    -0.02   0.04  -0.05     0.14  -0.03  -0.01
  16   1     0.02  -0.00  -0.01    -0.02  -0.02   0.05    -0.01  -0.00   0.01
  17   1    -0.00   0.00   0.00     0.01  -0.00   0.00     0.05   0.12   0.04
  18   1    -0.00   0.01  -0.00     0.00  -0.01   0.00    -0.17   0.18  -0.00
  19   1     0.01   0.00   0.00     0.00  -0.01  -0.00     0.06   0.12   0.04
  20   1    -0.30  -0.16  -0.04    -0.23   0.18  -0.61     0.00   0.02  -0.04
  21   1     0.10  -0.33  -0.73     0.00   0.03   0.01    -0.00   0.01   0.03
  22   1     0.00  -0.00   0.00    -0.01   0.01  -0.00     0.12  -0.05   0.02
  23   1     0.37   0.16  -0.09    -0.36   0.55   0.07    -0.03   0.03   0.01
  24   9    -0.00  -0.00  -0.00     0.00   0.00   0.00    -0.05  -0.05  -0.02
                     52                     53                     54
                        a                      a                      a 
 Frequencies --  1469.8952              1490.1132              1572.1090
 Red. masses --     2.0296                10.5073                11.5856
 Frc consts  --     0.0000                 0.0000                 0.0000
 IR Inten    --     3.5466               373.6188                13.8333
 Raman Activ --     0.0000                 0.0000                 0.0000
 Depolar     --     0.0000                 0.0000                 0.0000
 Atom AN      X      Y      Z        X      Y      Z        X      Y      Z
   1   8    -0.01  -0.00   0.00     0.01   0.01  -0.00    -0.00  -0.00  -0.00
   2   8     0.01  -0.00   0.00    -0.15   0.02  -0.03     0.02  -0.05  -0.01
   3   8    -0.00  -0.00  -0.00     0.00  -0.00   0.00    -0.00   0.00  -0.00
   4   7     0.01  -0.02   0.02    -0.00   0.01  -0.00    -0.00  -0.00  -0.00
   5   6    -0.17   0.01  -0.24    -0.12   0.02  -0.04    -0.00   0.04   0.01
   6   6     0.00   0.01  -0.02     0.00   0.00   0.00    -0.00   0.00  -0.00
   7   6     0.01   0.01  -0.02     0.38  -0.06   0.07    -0.03  -0.51  -0.11
   8   6     0.03   0.02   0.01    -0.25  -0.18  -0.09     0.18   0.27   0.09
   9   6     0.02  -0.03  -0.00    -0.13   0.23   0.02    -0.10   0.28   0.04
  10   6    -0.01  -0.03  -0.01    -0.07   0.33   0.05     0.08  -0.28  -0.04
  11   6     0.02   0.02   0.01    -0.26  -0.21  -0.11    -0.17  -0.28  -0.10
  12   6     0.01   0.01  -0.00    -0.01  -0.00  -0.00     0.00  -0.00   0.00
  13   6    -0.03   0.01  -0.01     0.47  -0.09   0.09     0.04   0.51   0.11
  14   1     0.31   0.38   0.46    -0.00   0.03   0.03    -0.05  -0.01  -0.00
  15   1     0.20  -0.42   0.47     0.01  -0.04   0.03     0.07  -0.02  -0.01
  16   1    -0.00  -0.01   0.01    -0.01  -0.00   0.01     0.00   0.00  -0.00
  17   1    -0.04  -0.01  -0.01     0.20   0.07   0.06    -0.08   0.01  -0.02
  18   1    -0.04   0.02  -0.00     0.19  -0.07   0.02     0.08   0.01   0.02
  19   1    -0.02  -0.01  -0.01     0.21   0.08   0.07     0.07  -0.02   0.01
  20   1    -0.02   0.02  -0.07     0.00  -0.01   0.01     0.00   0.00   0.00
  21   1     0.00  -0.01  -0.00     0.00   0.00   0.00    -0.00   0.00   0.00
  22   1     0.00  -0.00   0.00    -0.04   0.01  -0.01    -0.10   0.05  -0.01
  23   1    -0.03   0.04   0.01     0.00  -0.01  -0.00     0.00  -0.00   0.00
  24   9     0.00   0.01   0.00    -0.01  -0.06  -0.01    -0.00   0.01   0.00
                     55                     56                     57
                        a                      a                      a 
 Frequencies --  1608.1180              1735.9876              2547.6558
 Red. masses --    11.7026                12.9109                 1.8335
 Frc consts  --     0.0000                 0.0000                 0.0000
 IR Inten    --    40.9550               768.4130               798.6496
 Raman Activ --     0.0000                 0.0000                 0.0000
 Depolar     --     0.0000                 0.0000                 0.0000
 Atom AN      X      Y      Z        X      Y      Z        X      Y      Z
   1   8    -0.00  -0.00   0.00     0.19   0.22  -0.10     0.00   0.03  -0.01
   2   8    -0.03   0.00  -0.01     0.00  -0.00   0.00    -0.00   0.00  -0.00
   3   8    -0.00   0.00  -0.00    -0.08   0.37  -0.22     0.00   0.01  -0.01
   4   7    -0.00  -0.00   0.00    -0.01  -0.01   0.01     0.24   0.04   0.02
   5   6     0.04  -0.01   0.02     0.00  -0.00   0.00     0.00  -0.00   0.00
   6   6     0.01  -0.00  -0.01    -0.00   0.02  -0.01     0.01   0.03  -0.02
   7   6    -0.27   0.06  -0.05    -0.00   0.00  -0.00     0.00   0.00   0.00
   8   6     0.42   0.07   0.12    -0.00  -0.00  -0.00     0.00  -0.00  -0.00
   9   6     0.42  -0.19   0.06     0.00  -0.00  -0.00    -0.00  -0.00   0.00
  10   6    -0.42   0.18  -0.06     0.00  -0.00   0.00    -0.00   0.00   0.00
  11   6    -0.41  -0.07  -0.11     0.00   0.00   0.00    -0.00  -0.00  -0.00
  12   6    -0.00   0.00   0.00    -0.12  -0.73   0.39    -0.02  -0.03   0.01
  13   6     0.26  -0.07   0.05    -0.00   0.00  -0.00     0.00  -0.00   0.00
  14   1     0.02  -0.00  -0.01     0.01   0.00   0.00    -0.00   0.00  -0.00
  15   1    -0.00   0.01  -0.00     0.00  -0.00   0.00    -0.00   0.00  -0.00
  16   1    -0.00   0.00  -0.00     0.02  -0.03   0.02     0.01   0.01   0.01
  17   1    -0.06  -0.06  -0.03     0.00   0.00   0.00    -0.00   0.00  -0.00
  18   1    -0.07   0.07  -0.00    -0.00   0.00   0.00     0.00  -0.00  -0.00
  19   1     0.07   0.07   0.03    -0.00   0.00  -0.00     0.00  -0.00  -0.00
  20   1    -0.00   0.00  -0.00     0.01   0.02  -0.01     0.01   0.01   0.01
  21   1     0.00  -0.00   0.00    -0.00   0.12  -0.07    -0.91  -0.33   0.03
  22   1    -0.01   0.00  -0.00    -0.00   0.00   0.00     0.00  -0.00   0.00
  23   1    -0.00   0.00   0.00     0.01   0.02  -0.00     0.01  -0.00  -0.01
  24   9     0.01  -0.01   0.00     0.00   0.00   0.00    -0.00  -0.00  -0.00
                     58                     59                     60
                        a                      a                      a 
 Frequencies --  2993.7745              3002.9647              3009.6744
 Red. masses --     1.9484                 1.5138                 1.7970
 Frc consts  --     0.0000                 0.0000                 0.0000
 IR Inten    --    11.0653                20.4550                32.3623
 Raman Activ --     0.0000                 0.0000                 0.0000
 Depolar     --     0.0000                 0.0000                 0.0000
 Atom AN      X      Y      Z        X      Y      Z        X      Y      Z
   1   8     0.00   0.00   0.00     0.00   0.00  -0.00    -0.00  -0.00   0.00
   2   8     0.00  -0.00  -0.00    -0.00   0.00  -0.00     0.00  -0.00  -0.00
   3   8    -0.00   0.00  -0.00     0.00  -0.00   0.00    -0.00  -0.00  -0.00
   4   7    -0.00  -0.00  -0.00     0.00  -0.00   0.00     0.00   0.00  -0.00
   5   6     0.03   0.28   0.01    -0.09   0.04  -0.18     0.03   0.08   0.05
   6   6    -0.02  -0.05  -0.04     0.02   0.04   0.02     0.08   0.19   0.14
   7   6    -0.00   0.01   0.00    -0.00   0.00  -0.00     0.00   0.00   0.00
   8   6     0.00  -0.00   0.00     0.00  -0.00   0.00     0.00  -0.00  -0.00
   9   6    -0.00  -0.00  -0.00     0.00   0.00   0.00    -0.00  -0.00  -0.00
  10   6    -0.00   0.00  -0.00    -0.00   0.00   0.00    -0.00  -0.00  -0.00
  11   6     0.00   0.00   0.00    -0.00  -0.00   0.00     0.00  -0.00   0.00
  12   6    -0.00  -0.00  -0.00     0.00   0.00  -0.00     0.00   0.00   0.00
  13   6    -0.00  -0.00  -0.00     0.00  -0.00   0.00    -0.00  -0.00  -0.00
  14   1     0.11  -0.49   0.34     0.12  -0.64   0.39     0.01  -0.00   0.01
  15   1    -0.23  -0.54  -0.38     0.18   0.48   0.29    -0.11  -0.26  -0.17
  16   1     0.09   0.20   0.15    -0.07  -0.15  -0.11    -0.31  -0.69  -0.50
  17   1    -0.00   0.00  -0.00    -0.00   0.01  -0.00    -0.00   0.00  -0.00
  18   1     0.01   0.01   0.00    -0.00  -0.00  -0.00     0.00   0.00   0.00
  19   1     0.00  -0.00  -0.00    -0.00   0.00   0.00     0.00   0.00   0.00
  20   1    -0.00  -0.00   0.00    -0.00   0.00   0.00    -0.00   0.01   0.01
  21   1    -0.00  -0.00   0.00    -0.00  -0.00  -0.00    -0.01   0.00   0.00
  22   1     0.00   0.00   0.00    -0.00  -0.00  -0.00     0.00   0.00   0.00
  23   1     0.00   0.00  -0.00    -0.00  -0.00  -0.00     0.00   0.00   0.01
  24   9     0.00   0.00   0.00    -0.00  -0.00  -0.00     0.00   0.00   0.00
                     61                     62                     63
                        a                      a                      a 
 Frequencies --  3094.7171              3109.6817              3122.5916
 Red. masses --     1.8195                 1.8414                 1.8580
 Frc consts  --     0.0000                 0.0000                 0.0000
 IR Inten    --    18.1706                15.0737                15.8720
 Raman Activ --     0.0000                 0.0000                 0.0000
 Depolar     --     0.0000                 0.0000                 0.0000
 Atom AN      X      Y      Z        X      Y      Z        X      Y      Z
   1   8    -0.00  -0.00   0.00    -0.00  -0.00   0.00     0.00   0.00  -0.00
   2   8     0.00   0.00   0.00     0.00  -0.00   0.00    -0.00   0.00   0.00
   3   8    -0.00   0.00  -0.00    -0.00   0.00  -0.00     0.00  -0.00   0.00
   4   7    -0.00   0.00   0.00    -0.00  -0.00  -0.00     0.00  -0.00  -0.00
   5   6     0.00   0.00   0.00     0.00  -0.00   0.00     0.00  -0.00  -0.00
   6   6    -0.00   0.00   0.00    -0.00  -0.00  -0.00     0.00  -0.00  -0.00
   7   6     0.01   0.00   0.00     0.01  -0.00   0.00    -0.00   0.00   0.00
   8   6    -0.01   0.01   0.00     0.12  -0.25  -0.02    -0.00   0.00   0.00
   9   6     0.13   0.22   0.08     0.01   0.01   0.00    -0.03  -0.05  -0.02
  10   6    -0.00   0.00  -0.00    -0.01  -0.01  -0.00    -0.00   0.00   0.00
  11   6     0.02  -0.04  -0.00     0.00  -0.01  -0.00     0.13  -0.24  -0.02
  12   6     0.00  -0.00   0.00     0.00   0.00   0.00    -0.00   0.00  -0.00
  13   6     0.00  -0.00  -0.00    -0.00   0.00   0.00     0.01  -0.00   0.00
  14   1     0.00  -0.00   0.00    -0.00   0.01  -0.01     0.00   0.00  -0.00
  15   1    -0.01  -0.01  -0.01     0.00   0.00   0.00     0.00   0.00   0.00
  16   1    -0.00  -0.00  -0.00     0.00   0.00   0.00     0.00   0.00   0.00
  17   1     0.03  -0.05  -0.00    -0.42   0.86   0.07     0.01  -0.02  -0.00
  18   1    -0.47  -0.77  -0.29    -0.03  -0.04  -0.02     0.09   0.14   0.05
  19   1    -0.08   0.16   0.01    -0.01   0.02   0.00    -0.44   0.83   0.07
  20   1     0.00  -0.00  -0.00    -0.00   0.00   0.00    -0.00   0.00   0.00
  21   1     0.00  -0.00  -0.00     0.00   0.00  -0.00    -0.00  -0.00   0.00
  22   1    -0.00  -0.00  -0.00    -0.00   0.00   0.00    -0.00  -0.01  -0.00
  23   1    -0.00  -0.00  -0.00     0.00  -0.00   0.00    -0.00  -0.00  -0.00
  24   9     0.00  -0.00  -0.00     0.00   0.00   0.00    -0.00  -0.00  -0.00
                     64                     65                     66
                        a                      a                      a 
 Frequencies --  3299.6692              3321.9868              3442.3166
 Red. masses --     1.7938                 1.8086                 1.8670
 Frc consts  --     0.0000                 0.0000                 0.0000
 IR Inten    --   106.1070               133.9277               198.6539
 Raman Activ --     0.0000                 0.0000                 0.0000
 Depolar     --     0.0000                 0.0000                 0.0000
 Atom AN      X      Y      Z        X      Y      Z        X      Y      Z
   1   8    -0.00   0.00  -0.00    -0.00   0.00  -0.00    -0.00  -0.00   0.00
   2   8    -0.00  -0.00  -0.00     0.00   0.00   0.00     0.09   0.21   0.06
   3   8    -0.00   0.00  -0.00    -0.00   0.00  -0.00    -0.00  -0.00  -0.00
   4   7     0.13  -0.18  -0.11     0.06   0.03   0.24     0.00  -0.00  -0.00
   5   6     0.00  -0.00  -0.00     0.00   0.00   0.00     0.00   0.00   0.00
   6   6    -0.00  -0.01  -0.00     0.00   0.00   0.00    -0.00   0.00  -0.00
   7   6    -0.00   0.00  -0.00    -0.00  -0.00   0.00    -0.00  -0.00  -0.00
   8   6     0.00   0.00  -0.00     0.00  -0.00  -0.00     0.00  -0.00   0.00
   9   6     0.00   0.00   0.00     0.00  -0.00  -0.00     0.00   0.00   0.00
  10   6    -0.00   0.00  -0.00     0.00  -0.00  -0.00    -0.00  -0.00  -0.00
  11   6     0.00  -0.00   0.00    -0.00   0.00   0.00    -0.00   0.00  -0.00
  12   6     0.00  -0.00   0.00     0.00  -0.00   0.00     0.00  -0.00   0.00
  13   6     0.00  -0.00  -0.00    -0.00   0.00  -0.00     0.01   0.00   0.00
  14   1     0.00   0.00  -0.00    -0.00   0.00  -0.00    -0.00   0.00  -0.00
  15   1    -0.00   0.00   0.00    -0.00  -0.00  -0.00    -0.00  -0.00  -0.00
  16   1     0.00   0.01   0.00    -0.00  -0.00  -0.01     0.00  -0.00  -0.00
  17   1     0.00  -0.00   0.00    -0.00   0.00  -0.00    -0.00   0.00  -0.00
  18   1    -0.00  -0.00  -0.00     0.00   0.00   0.00     0.00  -0.00  -0.00
  19   1     0.00  -0.00   0.00     0.00  -0.00   0.00     0.00  -0.01  -0.00
  20   1    -0.52   0.69   0.44     0.01   0.01   0.02    -0.00   0.00   0.00
  21   1     0.03  -0.01  -0.00     0.03   0.00   0.02    -0.00   0.00   0.00
  22   1     0.00   0.00   0.00    -0.00  -0.00  -0.00    -0.40  -0.84  -0.26
  23   1     0.01  -0.01  -0.02    -0.27  -0.11  -0.92     0.00   0.00   0.00
  24   9    -0.00  -0.00   0.00     0.00   0.00   0.00     0.00  -0.00   0.00
