24
 energy: -44.249454612529 gnorm: 0.000472259979 xtb: 6.4.1 (afa7bdf)
O        -4.30455197965824   -0.46758316656033    0.43221148632787
O         4.34222441332234   -0.50762159609075    0.28380483286273
O        -3.76108420907400    1.46057947681848   -0.57438867134310
N        -2.02591086661743   -1.15210552305098    1.15786910275061
C        -1.18294198304753   -0.00618212308616   -0.89074483112493
C        -2.00030089823026    0.11207855312744    0.39497145073044
C         0.28798559163933   -0.13190619699860   -0.60608490287297
C         1.01616820038248    0.98376167138200   -0.20959617116804
C         0.94296625120023   -1.35457676974392   -0.69855635514531
C         2.35486962415774    0.84983323787435    0.08080471328854
C         2.28782908687261   -1.47526009109401   -0.40350041682088
C        -3.51816282873642    0.41989372060833    0.03641788299364
C         3.02789687417075   -0.36709021656672   -0.00193713019430
H        -1.38258428570476    0.89220246332315   -1.47774070533913
H        -1.53804219884117   -0.86212566706216   -1.46587082111367
H        -1.62882012812111    0.93956415531728    0.99934873159877
H         0.55355629443897    1.95500755739066   -0.13440627357136
H         0.40504742268205   -2.22957220749754   -1.02874707071118
H         2.79607177647054   -2.42212346480413   -0.48007523907110
H        -1.47904590764444   -1.88937580224262    0.70686516814387
H        -3.07441487719987   -1.37391326164640    1.10753895071852
H         4.73458899259259    0.33912155738519    0.54812533392015
H        -1.73883472575302   -1.05175131093455    2.13271712212852
F         3.07251549304505    1.95608815577411    0.46855353661584
