      -----------------------------------------------------------      
     |                   =====================                   |     
     |                           x T B                           |     
     |                   =====================                   |     
     |                         S. Grimme                         |     
     |          Mulliken Center for Theoretical Chemistry        |     
     |                    University of Bonn                     |     
      -----------------------------------------------------------      

   * xtb version 6.4.1 (afa7bdf) compiled by 'ehlert@majestix' on 2021-06-10

   xtb is free software: you can redistribute it and/or modify it under
   the terms of the GNU Lesser General Public License as published by
   the Free Software Foundation, either version 3 of the License, or
   (at your option) any later version.
   
   xtb is distributed in the hope that it will be useful,
   but WITHOUT ANY WARRANTY; without even the implied warranty of
   MERCHANTABILITY or FITNESS FOR A PARTICULAR PURPOSE.  See the
   GNU Lesser General Public License for more details.
   
   Cite this work as:
   * C. Bannwarth, E. Caldeweyher, S. Ehlert, A. Hansen, P. Pracht,
     J. Seibert, S. Spicher, S. Grimme, WIREs Comput. Mol. Sci., 2020, 11,
     e01493. DOI: 10.1002/wcms.1493
   
   for GFN2-xTB:
   * C. Bannwarth, S. Ehlert and S. Grimme., J. Chem. Theory Comput., 2019,
     15, 1652-1671. DOI: 10.1021/acs.jctc.8b01176
   for GFN1-xTB:
   * S. Grimme, C. Bannwarth, P. Shushkov, J. Chem. Theory Comput., 2017,
     13, 1989-2009. DOI: 10.1021/acs.jctc.7b00118
   for GFN0-xTB:
   * P. Pracht, E. Caldeweyher, S. Ehlert, S. Grimme, ChemRxiv, 2019, preprint.
     DOI: 10.26434/chemrxiv.8326202.v1
   for GFN-FF:
   * S. Spicher and S. Grimme, Angew. Chem. Int. Ed., 2020, 59, 15665-15673.
     DOI: 10.1002/anie.202004239
   
   for DFT-D4:
   * E. Caldeweyher, C. Bannwarth and S. Grimme, J. Chem. Phys., 2017,
     147, 034112. DOI: 10.1063/1.4993215
   * E. Caldeweyher, S. Ehlert, A. Hansen, H. Neugebauer, S. Spicher,
     C. Bannwarth and S. Grimme, J. Chem. Phys., 2019, 150, 154122.
     DOI: 10.1063/1.5090222
   * E. Caldeweyher, J.-M. Mewes, S. Ehlert and S. Grimme, Phys. Chem. Chem. Phys.
     2020, 22, 8499-8512. DOI: 10.1039/D0CP00502A
   
   for sTDA-xTB:
   * S. Grimme and C. Bannwarth, J. Chem. Phys., 2016, 145, 054103.
     DOI: 10.1063/1.4959605
   
   in the mass-spec context:
   * V. Asgeirsson, C. Bauer and S. Grimme, Chem. Sci., 2017, 8, 4879.
     DOI: 10.1039/c7sc00601b
   * J. Koopman and S. Grimme, ACS Omega 2019, 4, 12, 15120-15133.
     DOI: 10.1021/acsomega.9b02011
   
   for metadynamics refer to:
   * S. Grimme, J. Chem. Theory Comput., 2019, 155, 2847-2862
     DOI: 10.1021/acs.jctc.9b00143
   
   for SPH calculations refer to:
   * S. Spicher and S. Grimme, J. Chem. Theory Comput., 2021, 17, 1701-1714
     DOI: 10.1021/acs.jctc.0c01306
   
   with help from (in alphabetical order)
   P. Atkinson, C. Bannwarth, F. Bohle, G. Brandenburg, E. Caldeweyher
   M. Checinski, S. Dohm, S. Ehlert, S. Ehrlich, I. Gerasimov, J. Koopman
   C. Lavigne, S. Lehtola, F. März, M. Müller, F. Musil, H. Neugebauer
   J. Pisarek, C. Plett, P. Pracht, J. Seibert, P. Shushkov, S. Spicher
   M. Stahn, M. Steiner, T. Strunk, J. Stückrath, T. Rose, and J. Unsleber
   
 * started run on 2021/11/15 at 09:23:09.820     

           -------------------------------------------------
          |                Calculation Setup                |
           -------------------------------------------------

          program call               : xtb 31_n-methylaniline.xyz --gfn2 --chrg 0 --uhf 0 --alpb water -P 1
          coordinate file            : 31_n-methylaniline.xyz
          omp threads                :                     1
          number of atoms            :                    17
          number of electrons        :                    42
          charge                     :                     0
          spin                       :                   0.0
          first test random number   :      0.77641364792136

   ID    Z sym.   atoms
    1    6 C      1-6, 14
    2    1 H      7-11, 13, 15-17
    3    7 N      12

           -------------------------------------------------
          |                 G F N 2 - x T B                 |
           -------------------------------------------------

        Reference                      10.1021/acs.jctc.8b01176
      * Hamiltonian:
        H0-scaling (s, p, d)           1.850000    2.230000    2.230000
        zeta-weighting                 0.500000
      * Dispersion:
        s8                             2.700000
        a1                             0.520000
        a2                             5.000000
        s9                             5.000000
      * Repulsion:
        kExp                           1.500000    1.000000
        rExp                           1.000000
      * Coulomb:
        alpha                          2.000000
        third order                    shell-resolved
        anisotropic                    true
        a3                             3.000000
        a5                             4.000000
        cn-shift                       1.200000
        cn-exp                         4.000000
        max-rad                        5.000000

      * Solvation model:               ALPB
        Solvent                        water
        Parameter file                 internal GFN2-xTB/ALPB
        Dielectric constant                8.0200E+01
        Reference state                gsolv [1 M gas/solution]
        Free energy shift                  1.0808E-03 Eh       6.7819E-01 kcal/mol
        Temperature                        2.9815E+02 K
        Density                            1.0000E+00 kg/L
        Solvent mass                       1.8000E+01 g/mol
        Interaction kernel             P16
        Born radius scaling (c1)           1.4744E+00
        Born radii integrator          GBOBC
        Born offset                        0.0000E+00 a0       0.0000E+00 AA
        H-bond correction              true
        Ion screening                  false
        Surface tension                    1.0000E-05 Eh       1.5569E+01 dyn/cm
        Grid points                               230 per atom
q/qsh data taken from xtbrestart
CAMM data taken from xtbrestart

          ...................................................
          :                      SETUP                      :
          :.................................................:
          :  # basis functions                  41          :
          :  # atomic orbitals                  41          :
          :  # shells                           25          :
          :  # electrons                        42          :
          :  max. iterations                   250          :
          :  Hamiltonian                  GFN2-xTB          :
          :  restarted?                       true          :
          :  GBSA solvation                   true          :
          :  PC potential                    false          :
          :  electronic temp.          300.0000000     K    :
          :  accuracy                    1.0000000          :
          :  -> integral cutoff          0.2500000E+02      :
          :  -> integral neglect         0.1000000E-07      :
          :  -> SCF convergence          0.1000000E-05 Eh   :
          :  -> wf. convergence          0.1000000E-03 e    :
          :  Broyden damping             0.4000000          :
          ...................................................

 iter      E             dE          RMSdq      gap      omega  full diag
   1    -22.8594378 -0.228594E+02  0.527E-05    3.67       0.0  T
   2    -22.8594378 -0.139195E-10  0.326E-05    3.67     742.9  T
   3    -22.8594378 -0.504841E-11  0.215E-05    3.67    1128.1  T

   *** convergence criteria satisfied after 3 iterations ***

         #    Occupation            Energy/Eh            Energy/eV
      -------------------------------------------------------------
         1        2.0000           -0.6418123             -17.4646
       ...           ...                  ...                  ...
        15        2.0000           -0.4647982             -12.6478
        16        2.0000           -0.4534451             -12.3389
        17        2.0000           -0.4268002             -11.6138
        18        2.0000           -0.4164975             -11.3335
        19        2.0000           -0.4124209             -11.2225
        20        2.0000           -0.3922652             -10.6741
        21        2.0000           -0.3489195              -9.4946 (HOMO)
        22                         -0.2139321              -5.8214 (LUMO)
        23                         -0.2029260              -5.5219
        24                         -0.0841860              -2.2908
        25                          0.0305349               0.8309
        26                          0.1106701               3.0115
       ...                                ...                  ...
        41                          0.6502486              17.6942
      -------------------------------------------------------------
                  HL-Gap            0.1349875 Eh            3.6732 eV
             Fermi-level           -0.2814258 Eh           -7.6580 eV

 SCC (total)                   0 d,  0 h,  0 min,  0.008 sec
 SCC setup                      ...        0 min,  0.001 sec (  7.326%)
 Dispersion                     ...        0 min,  0.000 sec (  2.151%)
 classical contributions        ...        0 min,  0.000 sec (  0.351%)
 integral evaluation            ...        0 min,  0.002 sec ( 26.347%)
 iterations                     ...        0 min,  0.002 sec ( 27.077%)
 molecular gradient             ...        0 min,  0.003 sec ( 34.468%)
 printout                       ...        0 min,  0.000 sec (  1.943%)

         :::::::::::::::::::::::::::::::::::::::::::::::::::::
         ::                     SUMMARY                     ::
         :::::::::::::::::::::::::::::::::::::::::::::::::::::
         :: total energy             -22.483910868925 Eh    ::
         :: total w/o Gsasa/hb       -22.481427612392 Eh    ::
         :: gradient norm              0.020201362321 Eh/a0 ::
         :: HOMO-LUMO gap              3.673195481066 eV    ::
         ::.................................................::
         :: SCC energy               -22.859437831124 Eh    ::
         :: -> isotropic ES            0.009621200089 Eh    ::
         :: -> anisotropic ES          0.006649232437 Eh    ::
         :: -> anisotropic XC          0.015806022398 Eh    ::
         :: -> dispersion             -0.012532686974 Eh    ::
         :: -> Gsolv                  -0.004388226524 Eh    ::
         ::    -> Gelec               -0.001904969990 Eh    ::
         ::    -> Gsasa               -0.002207554101 Eh    ::
         ::    -> Ghb                 -0.001356462130 Eh    ::
         ::    -> Gshift               0.001080759698 Eh    ::
         :: repulsion energy           0.375508732823 Eh    ::
         :: add. restraining           0.000000000000 Eh    ::
         :: total charge               0.000000000000 e     ::
         :::::::::::::::::::::::::::::::::::::::::::::::::::::

           -------------------------------------------------
          |                Property Printout                |
           -------------------------------------------------

    * Orbital Energies and Occupations

         #    Occupation            Energy/Eh            Energy/eV
      -------------------------------------------------------------
         1        2.0000           -0.6418123             -17.4646
       ...           ...                  ...                  ...
         9        2.0000           -0.5193841             -14.1332
        10        2.0000           -0.5033743             -13.6975
        11        2.0000           -0.4999942             -13.6055
        12        2.0000           -0.4820900             -13.1183
        13        2.0000           -0.4713282             -12.8255
        14        2.0000           -0.4673460             -12.7171
        15        2.0000           -0.4647982             -12.6478
        16        2.0000           -0.4534451             -12.3389
        17        2.0000           -0.4268002             -11.6138
        18        2.0000           -0.4164975             -11.3335
        19        2.0000           -0.4124209             -11.2225
        20        2.0000           -0.3922652             -10.6741
        21        2.0000           -0.3489195              -9.4946 (HOMO)
        22                         -0.2139321              -5.8214 (LUMO)
        23                         -0.2029260              -5.5219
        24                         -0.0841860              -2.2908
        25                          0.0305349               0.8309
        26                          0.1106701               3.0115
        27                          0.1292694               3.5176
        28                          0.1317965               3.5864
        29                          0.1551403               4.2216
        30                          0.1672021               4.5498
        31                          0.1836917               4.9985
        32                          0.1978448               5.3836
       ...                                ...                  ...
        41                          0.6502486              17.6942
      -------------------------------------------------------------
                  HL-Gap            0.1349875 Eh            3.6732 eV
             Fermi-level           -0.2814258 Eh           -7.6580 eV

     #   Z          covCN         q      C6AA      α(0)
     1   6 C        2.913    -0.039    28.958     8.824
     2   6 C        2.914    -0.066    29.642     8.928
     3   6 C        2.898     0.067    26.508     8.442
     4   6 C        2.916    -0.068    29.691     8.935
     5   6 C        2.913    -0.038    28.934     8.820
     6   6 C        2.910    -0.054    29.346     8.883
     7   1 H        0.925     0.023     2.686     2.563
     8   1 H        0.925     0.031     2.567     2.505
     9   1 H        0.925     0.024     2.679     2.560
    10   1 H        0.925     0.024     2.680     2.560
    11   1 H        0.925     0.020     2.736     2.587
    12   7 N        2.685    -0.210    25.563     7.509
    13   1 H        0.860     0.181     1.208     1.722
    14   6 C        3.685    -0.044    21.572     6.649
    15   1 H        0.923     0.035     2.511     2.478
    16   1 H        0.924     0.059     2.208     2.324
    17   1 H        0.924     0.054     2.267     2.354

 Mol. C6AA /au·bohr⁶  :       3103.809562
 Mol. C8AA /au·bohr⁸  :      72839.578697
 Mol. α(0) /au        :         88.644273


Wiberg/Mayer (AO) data.
largest (>0.10) Wiberg bond orders for each atom

 ---------------------------------------------------------------------------
     #   Z sym  total        # sym  WBO       # sym  WBO       # sym  WBO
 ---------------------------------------------------------------------------
     1   6 C    3.992 --     2 C    1.452     6 C    1.436     7 H    0.972
                             4 C    0.104
     2   6 C    3.987 --     1 C    1.452     3 C    1.348     8 H    0.968
                             5 C    0.102
     3   6 C    3.974 --     2 C    1.348     4 C    1.334    12 N    1.157
     4   6 C    3.986 --     5 C    1.475     3 C    1.334     9 H    0.969
                             1 C    0.104
     5   6 C    3.992 --     4 C    1.475     6 C    1.414    10 H    0.972
                             2 C    0.102
     6   6 C    3.990 --     1 C    1.436     5 C    1.414    11 H    0.972
     7   1 H    0.999 --     1 C    0.972
     8   1 H    0.999 --     2 C    0.968
     9   1 H    0.999 --     4 C    0.969
    10   1 H    0.999 --     5 C    0.972
    11   1 H    0.999 --     6 C    0.972
    12   7 N    3.303 --     3 C    1.157    14 C    1.013    13 H    0.939
    13   1 H    0.967 --    12 N    0.939
    14   6 C    3.976 --    12 N    1.013    16 H    0.984    17 H    0.979
                            15 H    0.976
    15   1 H    0.999 --    14 C    0.976
    16   1 H    0.996 --    14 C    0.984
    17   1 H    0.997 --    14 C    0.979
 ---------------------------------------------------------------------------

Topologies differ in total number of bonds
Writing topology from bond orders to xtbtopo.mol

molecular dipole:
                 x           y           z       tot (Debye)
 q only:       -0.945      -0.165      -0.134
   full:       -0.920      -0.204      -0.319       2.529
molecular quadrupole (traceless):
                xx          xy          yy          xz          yz          zz
 q only:        3.143       0.657      -0.132       0.746       0.422      -3.011
  q+dip:        4.254       1.256       2.602       1.425       1.182      -6.857
   full:        3.394       1.046       1.324       1.708       1.041      -4.718


           -------------------------------------------------
          | TOTAL ENERGY              -22.483910868925 Eh   |
          | GRADIENT NORM               0.020201362321 Eh/α |
          | HOMO-LUMO GAP               3.673195481066 eV   |
           -------------------------------------------------

------------------------------------------------------------------------
 * finished run on 2021/11/15 at 09:23:09.852     
------------------------------------------------------------------------
 total:
 * wall-time:     0 d,  0 h,  0 min,  0.031 sec
 *  cpu-time:     0 d,  0 h,  0 min,  0.016 sec
 * ratio c/w:     0.496 speedup
 SCF:
 * wall-time:     0 d,  0 h,  0 min,  0.008 sec
 *  cpu-time:     0 d,  0 h,  0 min,  0.016 sec
 * ratio c/w:     1.971 speedup

