      -----------------------------------------------------------      
     |                   =====================                   |     
     |                           x T B                           |     
     |                   =====================                   |     
     |                         S. Grimme                         |     
     |          Mulliken Center for Theoretical Chemistry        |     
     |                    University of Bonn                     |     
      -----------------------------------------------------------      

   * xtb version 6.4.1 (afa7bdf) compiled by 'ehlert@majestix' on 2021-06-10

   xtb is free software: you can redistribute it and/or modify it under
   the terms of the GNU Lesser General Public License as published by
   the Free Software Foundation, either version 3 of the License, or
   (at your option) any later version.
   
   xtb is distributed in the hope that it will be useful,
   but WITHOUT ANY WARRANTY; without even the implied warranty of
   MERCHANTABILITY or FITNESS FOR A PARTICULAR PURPOSE.  See the
   GNU Lesser General Public License for more details.
   
   Cite this work as:
   * C. Bannwarth, E. Caldeweyher, S. Ehlert, A. Hansen, P. Pracht,
     J. Seibert, S. Spicher, S. Grimme, WIREs Comput. Mol. Sci., 2020, 11,
     e01493. DOI: 10.1002/wcms.1493
   
   for GFN2-xTB:
   * C. Bannwarth, S. Ehlert and S. Grimme., J. Chem. Theory Comput., 2019,
     15, 1652-1671. DOI: 10.1021/acs.jctc.8b01176
   for GFN1-xTB:
   * S. Grimme, C. Bannwarth, P. Shushkov, J. Chem. Theory Comput., 2017,
     13, 1989-2009. DOI: 10.1021/acs.jctc.7b00118
   for GFN0-xTB:
   * P. Pracht, E. Caldeweyher, S. Ehlert, S. Grimme, ChemRxiv, 2019, preprint.
     DOI: 10.26434/chemrxiv.8326202.v1
   for GFN-FF:
   * S. Spicher and S. Grimme, Angew. Chem. Int. Ed., 2020, 59, 15665-15673.
     DOI: 10.1002/anie.202004239
   
   for DFT-D4:
   * E. Caldeweyher, C. Bannwarth and S. Grimme, J. Chem. Phys., 2017,
     147, 034112. DOI: 10.1063/1.4993215
   * E. Caldeweyher, S. Ehlert, A. Hansen, H. Neugebauer, S. Spicher,
     C. Bannwarth and S. Grimme, J. Chem. Phys., 2019, 150, 154122.
     DOI: 10.1063/1.5090222
   * E. Caldeweyher, J.-M. Mewes, S. Ehlert and S. Grimme, Phys. Chem. Chem. Phys.
     2020, 22, 8499-8512. DOI: 10.1039/D0CP00502A
   
   for sTDA-xTB:
   * S. Grimme and C. Bannwarth, J. Chem. Phys., 2016, 145, 054103.
     DOI: 10.1063/1.4959605
   
   in the mass-spec context:
   * V. Asgeirsson, C. Bauer and S. Grimme, Chem. Sci., 2017, 8, 4879.
     DOI: 10.1039/c7sc00601b
   * J. Koopman and S. Grimme, ACS Omega 2019, 4, 12, 15120-15133.
     DOI: 10.1021/acsomega.9b02011
   
   for metadynamics refer to:
   * S. Grimme, J. Chem. Theory Comput., 2019, 155, 2847-2862
     DOI: 10.1021/acs.jctc.9b00143
   
   for SPH calculations refer to:
   * S. Spicher and S. Grimme, J. Chem. Theory Comput., 2021, 17, 1701-1714
     DOI: 10.1021/acs.jctc.0c01306
   
   with help from (in alphabetical order)
   P. Atkinson, C. Bannwarth, F. Bohle, G. Brandenburg, E. Caldeweyher
   M. Checinski, S. Dohm, S. Ehlert, S. Ehrlich, I. Gerasimov, J. Koopman
   C. Lavigne, S. Lehtola, F. März, M. Müller, F. Musil, H. Neugebauer
   J. Pisarek, C. Plett, P. Pracht, J. Seibert, P. Shushkov, S. Spicher
   M. Stahn, M. Steiner, T. Strunk, J. Stückrath, T. Rose, and J. Unsleber
   
 * started run on 2021/11/15 at 09:36:19.046     

           -------------------------------------------------
          |                Calculation Setup                |
           -------------------------------------------------

          program call               : xtb 26_4-methylaniline.xyz --gfn2 --chrg 0 --uhf 0 --alpb water --ohess -P 1
          coordinate file            : 26_4-methylaniline.xyz
          omp threads                :                     1
          number of atoms            :                    17
          number of electrons        :                    42
          charge                     :                     0
          spin                       :                   0.0
          first test random number   :      0.00430149043241

   ID    Z sym.   atoms
    1    6 C      1-6, 14
    2    1 H      7, 8, 10-13, 15-17
    3    7 N      9

           -------------------------------------------------
          |                 G F N 2 - x T B                 |
           -------------------------------------------------

        Reference                      10.1021/acs.jctc.8b01176
      * Hamiltonian:
        H0-scaling (s, p, d)           1.850000    2.230000    2.230000
        zeta-weighting                 0.500000
      * Dispersion:
        s8                             2.700000
        a1                             0.520000
        a2                             5.000000
        s9                             5.000000
      * Repulsion:
        kExp                           1.500000    1.000000
        rExp                           1.000000
      * Coulomb:
        alpha                          2.000000
        third order                    shell-resolved
        anisotropic                    true
        a3                             3.000000
        a5                             4.000000
        cn-shift                       1.200000
        cn-exp                         4.000000
        max-rad                        5.000000

      * Solvation model:               ALPB
        Solvent                        water
        Parameter file                 internal GFN2-xTB/ALPB
        Dielectric constant                8.0200E+01
        Reference state                gsolv [1 M gas/solution]
        Free energy shift                  1.0808E-03 Eh       6.7819E-01 kcal/mol
        Temperature                        2.9815E+02 K
        Density                            1.0000E+00 kg/L
        Solvent mass                       1.8000E+01 g/mol
        Interaction kernel             P16
        Born radius scaling (c1)           1.4744E+00
        Born radii integrator          GBOBC
        Born offset                        0.0000E+00 a0       0.0000E+00 AA
        H-bond correction              true
        Ion screening                  false
        Surface tension                    1.0000E-05 Eh       1.5569E+01 dyn/cm
        Grid points                               230 per atom

          ...................................................
          :                      SETUP                      :
          :.................................................:
          :  # basis functions                  41          :
          :  # atomic orbitals                  41          :
          :  # shells                           25          :
          :  # electrons                        42          :
          :  max. iterations                   250          :
          :  Hamiltonian                  GFN2-xTB          :
          :  restarted?                      false          :
          :  GBSA solvation                   true          :
          :  PC potential                    false          :
          :  electronic temp.          300.0000000     K    :
          :  accuracy                    1.0000000          :
          :  -> integral cutoff          0.2500000E+02      :
          :  -> integral neglect         0.1000000E-07      :
          :  -> SCF convergence          0.1000000E-05 Eh   :
          :  -> wf. convergence          0.1000000E-03 e    :
          :  Broyden damping             0.4000000          :
          ...................................................

 iter      E             dE          RMSdq      gap      omega  full diag
   1    -22.8561507 -0.228562E+02  0.391E+00    3.36       0.0  T
   2    -22.8680291 -0.118783E-01  0.237E+00    3.77       1.0  T
   3    -22.8655339  0.249517E-02  0.762E-01    3.77       1.0  T
   4    -22.8694798 -0.394589E-02  0.208E-01    3.77       1.0  T
   5    -22.8698139 -0.334133E-03  0.673E-02    3.77       1.0  T
   6    -22.8698200 -0.607452E-05  0.321E-02    3.77       1.0  T
   7    -22.8698258 -0.580666E-05  0.140E-02    3.77       1.7  T
   8    -22.8698261 -0.296397E-06  0.206E-03    3.77      11.8  T
   9    -22.8698261 -0.305174E-08  0.123E-03    3.77      19.7  T
  10    -22.8698261 -0.633033E-09  0.313E-04    3.77      77.4  T
  11    -22.8698261 -0.861640E-09  0.101E-04    3.77     239.9  T

   *** convergence criteria satisfied after 11 iterations ***

         #    Occupation            Energy/Eh            Energy/eV
      -------------------------------------------------------------
         1        2.0000           -0.6381780             -17.3657
       ...           ...                  ...                  ...
        15        2.0000           -0.4644673             -12.6388
        16        2.0000           -0.4463475             -12.1457
        17        2.0000           -0.4279415             -11.6449
        18        2.0000           -0.4167163             -11.3394
        19        2.0000           -0.4100920             -11.1592
        20        2.0000           -0.3909510             -10.6383
        21        2.0000           -0.3515539              -9.5663 (HOMO)
        22                         -0.2129143              -5.7937 (LUMO)
        23                         -0.2011374              -5.4732
        24                         -0.0841629              -2.2902
        25                          0.0530108               1.4425
        26                          0.1026446               2.7931
       ...                                ...                  ...
        41                          0.6398657              17.4116
      -------------------------------------------------------------
                  HL-Gap            0.1386395 Eh            3.7726 eV
             Fermi-level           -0.2822341 Eh           -7.6800 eV

 SCC (total)                   0 d,  0 h,  0 min,  0.009 sec
 SCC setup                      ...        0 min,  0.000 sec (  4.899%)
 Dispersion                     ...        0 min,  0.000 sec (  1.412%)
 classical contributions        ...        0 min,  0.000 sec (  0.263%)
 integral evaluation            ...        0 min,  0.001 sec ( 15.364%)
 iterations                     ...        0 min,  0.004 sec ( 46.255%)
 molecular gradient             ...        0 min,  0.003 sec ( 29.990%)
 printout                       ...        0 min,  0.000 sec (  1.608%)

         :::::::::::::::::::::::::::::::::::::::::::::::::::::
         ::                     SUMMARY                     ::
         :::::::::::::::::::::::::::::::::::::::::::::::::::::
         :: total energy             -22.490728543899 Eh    ::
         :: total w/o Gsasa/hb       -22.486197641207 Eh    ::
         :: gradient norm              0.018785525548 Eh/a0 ::
         :: HOMO-LUMO gap              3.772573847960 eV    ::
         ::.................................................::
         :: SCC energy               -22.869826096861 Eh    ::
         :: -> isotropic ES            0.014061534177 Eh    ::
         :: -> anisotropic ES          0.006959034678 Eh    ::
         :: -> anisotropic XC          0.014750652257 Eh    ::
         :: -> dispersion             -0.012504571033 Eh    ::
         :: -> Gsolv                  -0.006535133422 Eh    ::
         ::    -> Gelec               -0.002004230730 Eh    ::
         ::    -> Gsasa               -0.002672434418 Eh    ::
         ::    -> Ghb                 -0.002939227972 Eh    ::
         ::    -> Gshift               0.001080759698 Eh    ::
         :: repulsion energy           0.379090722339 Eh    ::
         :: add. restraining           0.000000000000 Eh    ::
         :: total charge               0.000000000000 e     ::
         :::::::::::::::::::::::::::::::::::::::::::::::::::::

      ----------------------------------------------------------- 
     |                   =====================                   |
     |                        A N C O P T                        |
     |                   =====================                   |
     |               Approximate Normal Coordinate               |
     |                Rational Function Optimizer                |
      ----------------------------------------------------------- 

          ...................................................
          :                      SETUP                      :
          :.................................................:
          :   optimization level            normal          :
          :   max. optcycles                   200          :
          :   ANC micro-cycles                  20          :
          :   degrees of freedom                45          :
          :.................................................:
          :   RF solver                   davidson          :
          :   write xtbopt.log                true          :
          :   linear?                        false          :
          :   energy convergence         0.5000000E-05 Eh   :
          :   grad. convergence          0.1000000E-02 Eh/α :
          :   maximium RF displ.         1.0000000          :
          :   Hlow (freq-cutoff)         0.1000000E-01      :
          :   Hmax (freq-cutoff)         5.0000000          :
          :   S6 in model hess.         20.0000000          :
          ...................................................

generating ANC from model Hessian ...
Using Lindh-Hessian (1995)
 Shifting diagonal of input Hessian by   6.960334148836193E-003
 Lowest  eigenvalues of input Hessian
    0.000000    0.000000    0.000000    0.000000    0.000000    0.000000
    0.010000    0.014924    0.019490    0.020853    0.021149    0.024601
    0.027331    0.036645    0.043190    0.048872    0.071565    0.073624
 Highest eigenvalues
    1.439044    1.569561    1.723588    1.847197    1.937196    2.035627
 

........................................................................
.............................. CYCLE    1 ..............................
........................................................................
   1    -22.8698261 -0.228698E+02  0.292E-05    3.77       0.0  T
   2    -22.8698261 -0.309797E-11  0.155E-05    3.77    1568.9  T
   3    -22.8698261 -0.213163E-12  0.913E-06    3.77    2655.2  T
     SCC iter.                  ...        0 min,  0.002 sec
     gradient                   ...        0 min,  0.003 sec
 * total energy  :   -22.4907285 Eh     change       -0.9769963E-11 Eh
   gradient norm :     0.0187858 Eh/α   predicted     0.0000000E+00 (-100.00%)
   displ. norm   :     0.1483959 α      lambda       -0.1895436E-02
   maximum displ.:     0.0914262 α      in ANC's #9, #10, #24, ...

........................................................................
.............................. CYCLE    2 ..............................
........................................................................
   1    -22.8872196 -0.228872E+02  0.151E-01    3.81       0.0  T
   2    -22.8872240 -0.437282E-05  0.883E-02    3.81       1.0  T
   3    -22.8872201  0.392179E-05  0.234E-02    3.81       1.0  T
   4    -22.8872252 -0.513993E-05  0.297E-03    3.81       8.2  T
   5    -22.8872252 -0.332234E-07  0.173E-03    3.81      14.1  T
   6    -22.8872252 -0.430418E-08  0.870E-04    3.81      27.9  T
   7    -22.8872252 -0.167501E-08  0.180E-04    3.81     134.9  T
     SCC iter.                  ...        0 min,  0.002 sec
     gradient                   ...        0 min,  0.003 sec
 * total energy  :   -22.4919035 Eh     change       -0.1174952E-02 Eh
   gradient norm :     0.0077733 Eh/α   predicted    -0.9685878E-03 ( -17.56%)
   displ. norm   :     0.0579326 α      lambda       -0.2562026E-03
   maximum displ.:     0.0334017 α      in ANC's #9, #10, #25, ...

........................................................................
.............................. CYCLE    3 ..............................
........................................................................
   1    -22.8928755 -0.228929E+02  0.642E-02    3.80       0.0  T
   2    -22.8928796 -0.407560E-05  0.357E-02    3.81       1.0  T
   3    -22.8928789  0.677332E-06  0.203E-02    3.81       1.2  T
   4    -22.8928810 -0.205152E-05  0.208E-03    3.81      11.6  T
   5    -22.8928810 -0.260721E-07  0.984E-04    3.81      24.7  T
   6    -22.8928810 -0.351115E-08  0.528E-04    3.81      46.0  T
     SCC iter.                  ...        0 min,  0.002 sec
     gradient                   ...        0 min,  0.003 sec
 * total energy  :   -22.4920660 Eh     change       -0.1625324E-03 Eh
   gradient norm :     0.0047029 Eh/α   predicted    -0.1285302E-03 ( -20.92%)
   displ. norm   :     0.0379650 α      lambda       -0.9047931E-04
   maximum displ.:     0.0203702 α      in ANC's #1, #25, #4, ...

........................................................................
.............................. CYCLE    4 ..............................
........................................................................
   1    -22.8940482 -0.228940E+02  0.416E-02    3.78       0.0  T
   2    -22.8940518 -0.361302E-05  0.229E-02    3.79       1.1  T
   3    -22.8940524 -0.584933E-06  0.145E-02    3.79       1.7  T
   4    -22.8940531 -0.677228E-06  0.204E-03    3.79      11.9  T
   5    -22.8940531 -0.177746E-07  0.981E-04    3.79      24.7  T
   6    -22.8940531 -0.343212E-08  0.528E-04    3.79      45.9  T
     SCC iter.                  ...        0 min,  0.002 sec
     gradient                   ...        0 min,  0.003 sec
 * total energy  :   -22.4921328 Eh     change       -0.6673351E-04 Eh
   gradient norm :     0.0031837 Eh/α   predicted    -0.4530487E-04 ( -32.11%)
   displ. norm   :     0.0474473 α      lambda       -0.6800679E-04
   maximum displ.:     0.0318144 α      in ANC's #1, #4, #25, ...

........................................................................
.............................. CYCLE    5 ..............................
........................................................................
   1    -22.8936762 -0.228937E+02  0.453E-02    3.76       0.0  T
   2    -22.8936804 -0.419889E-05  0.252E-02    3.77       1.0  T
   3    -22.8936811 -0.691485E-06  0.159E-02    3.77       1.5  T
   4    -22.8936819 -0.833033E-06  0.241E-03    3.77      10.1  T
   5    -22.8936819 -0.202840E-07  0.119E-03    3.77      20.4  T
   6    -22.8936819 -0.394744E-08  0.630E-04    3.77      38.5  T
   7    -22.8936819 -0.113812E-08  0.175E-04    3.77     138.9  T
     SCC iter.                  ...        0 min,  0.003 sec
     gradient                   ...        0 min,  0.003 sec
 * total energy  :   -22.4921758 Eh     change       -0.4303899E-04 Eh
   gradient norm :     0.0018638 Eh/α   predicted    -0.3408070E-04 ( -20.81%)
   displ. norm   :     0.0380386 α      lambda       -0.1277353E-04
   maximum displ.:     0.0293639 α      in ANC's #1, #9, #4, ...

........................................................................
.............................. CYCLE    6 ..............................
........................................................................
   1    -22.8930784 -0.228931E+02  0.292E-02    3.76       0.0  T
   2    -22.8930795 -0.110040E-05  0.163E-02    3.76       1.5  T
   3    -22.8930795  0.241784E-07  0.970E-03    3.77       2.5  T
   4    -22.8930799 -0.428729E-06  0.145E-03    3.77      16.7  T
   5    -22.8930799 -0.563421E-08  0.742E-04    3.77      32.7  T
   6    -22.8930799 -0.103658E-08  0.362E-04    3.77      67.1  T
     SCC iter.                  ...        0 min,  0.002 sec
     gradient                   ...        0 min,  0.003 sec
 * total energy  :   -22.4921838 Eh     change       -0.8024890E-05 Eh
   gradient norm :     0.0006518 Eh/α   predicted    -0.6390770E-05 ( -20.36%)
   displ. norm   :     0.0058092 α      lambda       -0.1246452E-05
   maximum displ.:     0.0028886 α      in ANC's #1, #23, #25, ...

........................................................................
.............................. CYCLE    7 ..............................
........................................................................
   1    -22.8932974 -0.228933E+02  0.622E-03    3.77       0.0  T
   2    -22.8932974 -0.874659E-07  0.359E-03    3.77       6.8  T
   3    -22.8932975 -0.168467E-07  0.221E-03    3.77      11.0  T
   4    -22.8932975 -0.144422E-07  0.316E-04    3.77      76.7  T
   5    -22.8932975 -0.389765E-09  0.142E-04    3.77     171.3  T
     SCC iter.                  ...        0 min,  0.002 sec
     gradient                   ...        0 min,  0.003 sec
 * total energy  :   -22.4921849 Eh     change       -0.1098358E-05 Eh
   gradient norm :     0.0001776 Eh/α   predicted    -0.6253344E-06 ( -43.07%)
   displ. norm   :     0.0054994 α      lambda       -0.2028473E-06
   maximum displ.:     0.0053109 α      in ANC's #1, #15, #23, ...

   *** GEOMETRY OPTIMIZATION CONVERGED AFTER 7 ITERATIONS ***

------------------------------------------------------------------------
 total energy gain   :        -0.0014564 Eh       -0.9139 kcal/mol
 total RMSD          :         0.0625011 a0        0.0331 Å
 total power (kW/mol):        -0.5462464 (step)  -77.3625 (real)
------------------------------------------------------------------------

 ANCopt (total)                0 d,  0 h,  0 min,  0.049 sec
 optimizer setup                ...        0 min,  0.000 sec (  0.350%)
 model hessian                  ...        0 min,  0.002 sec (  3.378%)
 ANC generation                 ...        0 min,  0.000 sec (  0.718%)
 coordinate transformation      ...        0 min,  0.000 sec (  0.086%)
 single point calculation       ...        0 min,  0.045 sec ( 90.611%)
 optimization log               ...        0 min,  0.001 sec (  2.575%)
 hessian update                 ...        0 min,  0.000 sec (  0.083%)
 rational function              ...        0 min,  0.001 sec (  1.419%)

================
 final structure:
================
17
 xtb: 6.4.1 (afa7bdf)
C         1.38896384992920    0.00192793395224   -0.01320165306206
C         0.67349477816849   -1.18966226512729   -0.01349840115795
C        -0.70652698974868   -1.19717462438174   -0.01645930973693
C        -1.42531002023715   -0.00004936454082   -0.01643845295907
C        -0.70816917657459    1.19763660534664   -0.01636164519291
C         0.67234279214289    1.19206221855422   -0.01337231013052
H         1.20470296938478    2.13314337025543   -0.01557861349043
H        -1.24442294032842    2.13603935534633   -0.01858897177826
N        -2.80285157105652   -0.00110845022810    0.05377364821017
H        -3.25858471984216    0.84650969255841   -0.24144762420207
H        -3.25735538660160   -0.84915970674396   -0.24208825070212
H        -1.24175501463305   -2.13616204219312   -0.01877071023862
H         1.20802989641714   -2.12948032196895   -0.01579339780313
C         2.88900681135230   -0.00057128421427    0.00861115070468
H         3.28298140784772    0.92025723994293   -0.41485549866679
H         3.25012812695859   -0.08352512144927    1.03435420370658
H         3.28144618682108   -0.84449723510867   -0.55449616350056
 
 Bond Distances (Angstroems)
 ---------------------------
C1-C2=1.3899         C1-C6=1.3892         C1-C14=1.5002        C2-C1=1.3899         C2-C3=1.3800         C2-H13=1.0812        
C3-C2=1.3800         C3-C4=1.3963         C3-H12=1.0808        C4-C3=1.3963         C4-C5=1.3960         C4-N9=1.3793         
C5-C4=1.3960         C5-C6=1.3805         C5-H8=1.0808         C6-C1=1.3892         C6-C5=1.3805         C6-H7=1.0812         
H7-C6=1.0812         H8-C5=1.0808         N9-C4=1.3793         N9-H10=1.0066        N9-H11=1.0066        H10-N9=1.0066        
H11-N9=1.0066        H12-C3=1.0808        H13-C2=1.0812        C14-C1=1.5002        C14-H15=1.0874       C14-H16=1.0906       
C14-H17=1.0878       H15-C14=1.0874       H16-C14=1.0906       H17-C14=1.0878       
 C  H  Rav=1.0843 sigma=0.0039  Rmin=1.0808  Rmax=1.0906     7
 C  C  Rav=1.4046 sigma=0.0395  Rmin=1.3800  Rmax=1.5002     7
 N  H  Rav=1.0066 sigma=0.0000  Rmin=1.0066  Rmax=1.0066     2
 N  C  Rav=1.3793 sigma=0.0000  Rmin=1.3793  Rmax=1.3793     1
 
 selected bond angles (degree)
 --------------------
C6-C1-C2=117.96                C14-C1-C2=120.88               C14-C1-C6=121.15               C3-C2-C1=121.29                
H13-C2-C1=119.39               H13-C2-C3=119.32               C4-C3-C2=120.67                H12-C3-C2=120.00               
H12-C3-C4=119.33               C5-C4-C3=118.11                N9-C4-C3=120.89                N9-C4-C5=120.91                
C6-C5-C4=120.68                H8-C5-C4=119.34                H8-C5-C6=119.98                C5-C6-C1=121.28                
H7-C6-C1=119.45                H7-C6-C5=119.26                H10-N9-C4=115.89               H11-N9-C4=115.89               
H11-N9-H10=114.76              
 
 selected dihedral angles (degree)
 ---------------------------------
C3-C2-C1-C6=  0.12            C3-C2-C1-C14=179.17           H13-C2-C1-C6=179.85           H13-C2-C1-C14=358.90          
C4-C3-C2-C1=359.87            C4-C3-C2-H13=180.13           H12-C3-C2-C1=179.87           H12-C3-C2-H13=  0.14          
C5-C4-C3-C2=  0.14            C5-C4-C3-H12=180.14           N9-C4-C3-C2=183.54            N9-C4-C3-H12=  3.54           
C6-C5-C4-C3=359.86            C6-C5-C4-N9=176.45            H8-C5-C4-C3=179.86            H8-C5-C4-N9=356.46            
C5-C6-C1-C2=359.88            C5-C6-C1-C14=180.83           H7-C6-C1-C2=180.15            H7-C6-C1-C14=  1.10           
C1-C6-C5-C4=  0.14            C1-C6-C5-H8=180.13            H7-C6-C5-C4=179.87            H7-C6-C5-H8=359.86            
H10-N9-C4-C3=198.81           H10-N9-C4-C5= 22.31           H11-N9-C4-C3=337.65           H11-N9-C4-C5=161.15           
           -------------------------------------------------
          |                Final Singlepoint                |
           -------------------------------------------------

          ...................................................
          :                      SETUP                      :
          :.................................................:
          :  # basis functions                  41          :
          :  # atomic orbitals                  41          :
          :  # shells                           25          :
          :  # electrons                        42          :
          :  max. iterations                   250          :
          :  Hamiltonian                  GFN2-xTB          :
          :  restarted?                      false          :
          :  GBSA solvation                   true          :
          :  PC potential                    false          :
          :  electronic temp.          300.0000000     K    :
          :  accuracy                    1.0000000          :
          :  -> integral cutoff          0.2500000E+02      :
          :  -> integral neglect         0.1000000E-07      :
          :  -> SCF convergence          0.1000000E-05 Eh   :
          :  -> wf. convergence          0.1000000E-03 e    :
          :  Broyden damping             0.4000000          :
          ...................................................

 iter      E             dE          RMSdq      gap      omega  full diag
   1    -22.8932975 -0.228933E+02  0.771E-05    3.77       0.0  T
   2    -22.8932975 -0.121858E-10  0.447E-05    3.77     542.9  T
   3    -22.8932975 -0.174794E-11  0.279E-05    3.77     870.0  T

   *** convergence criteria satisfied after 3 iterations ***

         #    Occupation            Energy/Eh            Energy/eV
      -------------------------------------------------------------
         1        2.0000           -0.6395089             -17.4019
       ...           ...                  ...                  ...
        15        2.0000           -0.4658765             -12.6771
        16        2.0000           -0.4455375             -12.1237
        17        2.0000           -0.4256198             -11.5817
        18        2.0000           -0.4168660             -11.3435
        19        2.0000           -0.4088981             -11.1267
        20        2.0000           -0.3909487             -10.6383
        21        2.0000           -0.3472271              -9.4485 (HOMO)
        22                         -0.2087218              -5.6796 (LUMO)
        23                         -0.1949185              -5.3040
        24                         -0.0756299              -2.0580
        25                          0.0530358               1.4432
        26                          0.1169184               3.1815
       ...                                ...                  ...
        41                          0.6710518              18.2602
      -------------------------------------------------------------
                  HL-Gap            0.1385053 Eh            3.7689 eV
             Fermi-level           -0.2779745 Eh           -7.5641 eV

 SCC (total)                   0 d,  0 h,  0 min,  0.006 sec
 SCC setup                      ...        0 min,  0.000 sec (  5.264%)
 Dispersion                     ...        0 min,  0.000 sec (  0.727%)
 classical contributions        ...        0 min,  0.000 sec (  0.238%)
 integral evaluation            ...        0 min,  0.001 sec ( 20.383%)
 iterations                     ...        0 min,  0.002 sec ( 25.925%)
 molecular gradient             ...        0 min,  0.003 sec ( 44.802%)
 printout                       ...        0 min,  0.000 sec (  2.337%)

         :::::::::::::::::::::::::::::::::::::::::::::::::::::
         ::                     SUMMARY                     ::
         :::::::::::::::::::::::::::::::::::::::::::::::::::::
         :: total energy             -22.492184923744 Eh    ::
         :: total w/o Gsasa/hb       -22.487661427590 Eh    ::
         :: gradient norm              0.000177630484 Eh/a0 ::
         :: HOMO-LUMO gap              3.768920566197 eV    ::
         ::.................................................::
         :: SCC energy               -22.893297479953 Eh    ::
         :: -> isotropic ES            0.014257754001 Eh    ::
         :: -> anisotropic ES          0.006593038931 Eh    ::
         :: -> anisotropic XC          0.013994757578 Eh    ::
         :: -> dispersion             -0.012596211130 Eh    ::
         :: -> Gsolv                  -0.006688113081 Eh    ::
         ::    -> Gelec               -0.002164616926 Eh    ::
         ::    -> Gsasa               -0.002537974216 Eh    ::
         ::    -> Ghb                 -0.003066281637 Eh    ::
         ::    -> Gshift               0.001080759698 Eh    ::
         :: repulsion energy           0.401105488618 Eh    ::
         :: add. restraining           0.000000000000 Eh    ::
         :: total charge              -0.000000000000 e     ::
         :::::::::::::::::::::::::::::::::::::::::::::::::::::

           ------------------------------------------------- 
          |                Numerical Hessian                |
           ------------------------------------------------- 
step length          :   0.00500
SCC accuracy         :   0.30000
Hessian scale factor :   1.00000
frozen atoms in %    :   0.00000    0
RMS gradient         :   0.00018
estimated CPU  time      0.01 min
estimated wall time      0.01 min

writing file <hessian>.

 projected vibrational frequencies (cm⁻¹)
eigval :       -0.00    -0.00    -0.00    -0.00     0.00     0.00
eigval :       20.98   129.86   296.33   324.86   364.39   386.16
eigval :      405.18   443.47   481.00   549.61   614.37   660.71
eigval :      759.00   790.21   858.37   875.32   900.01   917.60
eigval :     1003.13  1016.31  1031.30  1034.06  1146.06  1198.73
eigval :     1230.67  1288.37  1316.27  1336.73  1403.34  1427.51
eigval :     1471.69  1482.70  1485.64  1516.75  1577.83  1621.78
eigval :     2987.18  3027.20  3034.39  3054.42  3057.49  3066.70
eigval :     3074.68  3467.56  3522.90
           -------------------------------------------------
          |                Property Printout                |
           -------------------------------------------------

    * Orbital Energies and Occupations

         #    Occupation            Energy/Eh            Energy/eV
      -------------------------------------------------------------
         1        2.0000           -0.6395087             -17.4019
       ...           ...                  ...                  ...
         9        2.0000           -0.5185904             -14.1116
        10        2.0000           -0.4944104             -13.4536
        11        2.0000           -0.4858029             -13.2194
        12        2.0000           -0.4774972             -12.9934
        13        2.0000           -0.4713299             -12.8255
        14        2.0000           -0.4664536             -12.6928
        15        2.0000           -0.4658763             -12.6771
        16        2.0000           -0.4455374             -12.1237
        17        2.0000           -0.4256197             -11.5817
        18        2.0000           -0.4168659             -11.3435
        19        2.0000           -0.4088981             -11.1267
        20        2.0000           -0.3909487             -10.6383
        21        2.0000           -0.3472271              -9.4485 (HOMO)
        22                         -0.2087218              -5.6796 (LUMO)
        23                         -0.1949184              -5.3040
        24                         -0.0756298              -2.0580
        25                          0.0530358               1.4432
        26                          0.1169185               3.1815
        27                          0.1465967               3.9891
        28                          0.1520423               4.1373
        29                          0.1750036               4.7621
        30                          0.1903498               5.1797
        31                          0.1997832               5.4364
        32                          0.2315226               6.3001
       ...                                ...                  ...
        41                          0.6710519              18.2603
      -------------------------------------------------------------
                  HL-Gap            0.1385053 Eh            3.7689 eV
             Fermi-level           -0.2779744 Eh           -7.5641 eV

     #   Z          covCN         q      C6AA      α(0)
     1   6 C        2.965    -0.007    28.187     8.708
     2   6 C        2.924    -0.047    29.177     8.858
     3   6 C        2.923    -0.071    29.762     8.946
     4   6 C        2.898     0.073    26.372     8.420
     5   6 C        2.923    -0.071    29.766     8.947
     6   6 C        2.924    -0.047    29.174     8.858
     7   1 H        0.925     0.023     2.692     2.566
     8   1 H        0.926     0.023     2.682     2.561
     9   7 N        2.640    -0.322    28.299     7.901
    10   1 H        0.860     0.193     1.143     1.675
    11   1 H        0.860     0.193     1.142     1.674
    12   1 H        0.926     0.024     2.680     2.560
    13   1 H        0.926     0.023     2.684     2.562
    14   6 C        3.757    -0.116    22.765     6.803
    15   1 H        0.925     0.041     2.437     2.441
    16   1 H        0.924     0.046     2.365     2.405
    17   1 H        0.925     0.042     2.423     2.434

 Mol. C6AA /au·bohr⁶  :       3084.869354
 Mol. C8AA /au·bohr⁸  :      72759.428787
 Mol. α(0) /au        :         88.318287


Wiberg/Mayer (AO) data.
largest (>0.10) Wiberg bond orders for each atom

 ---------------------------------------------------------------------------
     #   Z sym  total        # sym  WBO       # sym  WBO       # sym  WBO
 ---------------------------------------------------------------------------
     1   6 C    3.988 --     6 C    1.403     2 C    1.400    14 C    1.023
     2   6 C    3.992 --     3 C    1.466     1 C    1.400    13 H    0.970
                             5 C    0.103
     3   6 C    3.987 --     2 C    1.466     4 C    1.343    12 H    0.969
                             6 C    0.102
     4   6 C    3.975 --     5 C    1.345     3 C    1.343     9 N    1.164
     5   6 C    3.987 --     6 C    1.463     4 C    1.345     8 H    0.969
                             2 C    0.103
     6   6 C    3.992 --     5 C    1.463     1 C    1.403     7 H    0.970
                             3 C    0.102
     7   1 H    0.999 --     6 C    0.970
     8   1 H    0.999 --     5 C    0.969
     9   7 N    3.233 --     4 C    1.164    10 H    0.944    11 H    0.944
    10   1 H    0.962 --     9 N    0.944
    11   1 H    0.962 --     9 N    0.944
    12   1 H    0.999 --     3 C    0.969
    13   1 H    0.999 --     2 C    0.970
    14   6 C    3.996 --     1 C    1.023    15 H    0.984    17 H    0.982
                            16 H    0.970
    15   1 H    0.998 --    14 C    0.984
    16   1 H    0.996 --    14 C    0.970
    17   1 H    0.997 --    14 C    0.982
 ---------------------------------------------------------------------------

Topologies differ in total number of bonds
Writing topology from bond orders to xtbtopo.mol

molecular dipole:
                 x           y           z       tot (Debye)
 q only:       -0.651      -0.006      -0.195
   full:       -0.666      -0.007      -0.382       1.952
molecular quadrupole (traceless):
                xx          xy          yy          xz          yz          zz
 q only:        6.722      -0.027      -2.457       2.009       0.002      -4.264
  q+dip:        7.632      -0.048       0.473       3.940       0.003      -8.104
   full:        7.017      -0.043      -0.959       3.957       0.003      -6.058

           -------------------------------------------------
          |                Geometry Summary                 |
           -------------------------------------------------

      molecular mass/u    :      107.1533213
   center of mass at/Å    :       -0.0240069       0.0002579      -0.0066022
  moments of inertia/u·Å² :        0.9162535E+02   0.3422321E+03   0.4303902E+03
rotational constants/cm⁻¹ :        0.1839844E+00   0.4925789E-01   0.3916826E-01

 * 16 selected distances

     #   Z          #   Z                                           value/Å
     1   6 C        2   6 C                                       1.3898861
     2   6 C        3   6 C                                       1.3800454
     3   6 C        4   6 C                                       1.3963373 (max)
     4   6 C        5   6 C                                       1.3959737
     1   6 C        6   6 C                                       1.3892319
     5   6 C        6   6 C                                       1.3805265
     6   6 C        7   1 H                                       1.0812243
     5   6 C        8   1 H                                       1.0808204
     4   6 C        9   7 N                                       1.3793301
     9   7 N       10   1 H                                       1.0066304
     9   7 N       11   1 H                                       1.0066275 (min)
     3   6 C       12   1 H                                       1.0808199
     2   6 C       13   1 H                                       1.0811989
    14   6 C       15   1 H                                       1.0874121
    14   6 C       16   1 H                                       1.0906139
    14   6 C       17   1 H                                       1.0878003

 * 4 distinct bonds (by element types)

   Z      Z             #   av. dist./Å        max./Å        min./Å
   1 H    6 C           7     1.0842700     1.0906139     1.0808199
   6 C    6 C           6     1.3886668     1.3963373     1.3800454
   1 H    7 N           2     1.0066290     1.0066304     1.0066275
   6 C    7 N           1     1.3793301     1.3793301     1.3793301

           -------------------------------------------------
          |               Frequency Printout                |
           -------------------------------------------------
 projected vibrational frequencies (cm⁻¹)
eigval :       -0.00    -0.00    -0.00    -0.00     0.00     0.00
eigval :       20.98   129.86   296.33   324.86   364.39   386.16
eigval :      405.18   443.47   481.00   549.61   614.37   660.71
eigval :      759.00   790.21   858.37   875.32   900.01   917.60
eigval :     1003.13  1016.31  1031.30  1034.06  1146.06  1198.73
eigval :     1230.67  1288.37  1316.27  1336.73  1403.34  1427.51
eigval :     1471.69  1482.70  1485.64  1516.75  1577.83  1621.78
eigval :     2987.18  3027.20  3034.39  3054.42  3057.49  3066.70
eigval :     3074.68  3467.56  3522.90
 reduced masses (amu)
   1: 11.15   2: 10.70   3: 11.03   4: 10.62   5:  9.60   6: 11.25   7:  1.35   8: 10.06
   9:  8.81  10:  9.78  11:  4.24  12:  7.64  13:  7.74  14: 11.39  15:  7.92  16:  4.82
  17: 11.22  18: 10.75  19: 10.36  20:  4.80  21:  3.35  22: 10.95  23:  2.60  24:  3.89
  25:  4.23  26:  8.45  27:  3.60  28:  4.50  29:  2.47  30:  1.72  31:  6.79  32:  3.37
  33: 10.22  34: 11.54  35:  3.22  36:  9.73  37:  3.51  38:  1.66  39:  1.88  40:  9.63
  41: 11.40  42: 11.52  43:  1.82  44:  1.84  45:  1.47  46:  1.77  47:  1.76  48:  1.87
  49:  1.88  50:  1.46  51:  2.16
 IR intensities (km·mol⁻¹)
   1:  0.01   2:  0.35   3:  0.21   4:  0.27   5:  0.22   6:  0.26   7:  0.69   8:  2.98
   9:  3.93  10:  1.92  11: 12.00  12:  3.63  13:  2.12  14:  9.01  15: 44.17  16:536.06
  17:  0.06  18: 13.77  19:  3.50  20: 36.51  21:  0.12  22:  0.66  23:  0.08  24:  0.01
  25:  8.42  26:  1.21  27:  2.11  28: 12.08  29:  0.62  30: 16.45  31:110.05  32:  0.04
  33:127.85  34: 22.49  35:  0.06  36: 18.17  37: 27.52  38:  6.90  39:  0.84  40:334.28
  41:  5.44  42:140.09  43: 59.84  44: 53.39  45: 63.20  46:  8.45  47:143.81  48:373.78
  49:  1.42  50: 12.84  51: 11.23
 Raman intensities (amu)
   1:  0.00   2:  0.00   3:  0.00   4:  0.00   5:  0.00   6:  0.00   7:  0.00   8:  0.00
   9:  0.00  10:  0.00  11:  0.00  12:  0.00  13:  0.00  14:  0.00  15:  0.00  16:  0.00
  17:  0.00  18:  0.00  19:  0.00  20:  0.00  21:  0.00  22:  0.00  23:  0.00  24:  0.00
  25:  0.00  26:  0.00  27:  0.00  28:  0.00  29:  0.00  30:  0.00  31:  0.00  32:  0.00
  33:  0.00  34:  0.00  35:  0.00  36:  0.00  37:  0.00  38:  0.00  39:  0.00  40:  0.00
  41:  0.00  42:  0.00  43:  0.00  44:  0.00  45:  0.00  46:  0.00  47:  0.00  48:  0.00
  49:  0.00  50:  0.00  51:  0.00
 output can be read by thermo (or use thermo option).
 writing <g98.out> molden fake output.
 recommended (thermochemical) frequency scaling factor: 1.0
           -------------------------------------------------
          |             Thermodynamic Functions             |
           -------------------------------------------------

Molecule has no symmetry elements
It seems to be the C1 point group
c1  symmetry found (for desy threshold:  0.10E+00) used in thermo

          ...................................................
          :                      SETUP                      :
          :.................................................:
          :  # frequencies                          45      :
          :  # imaginary freq.                       0      :
          :  linear?                             false      :
          :  only rotor calc.                    false      :
          :  symmetry                               c1      :
          :  rotational number                       1      :
          :  scaling factor                  1.0000000      :
          :  rotor cutoff                   50.0000000 cm⁻¹ :
          :  imag. cutoff                  -20.0000000 cm⁻¹ :
          :.................................................:

    mode    ω/cm⁻¹     T·S(HO)/kcal·mol⁻¹    T·S(FR)/kcal·mol⁻¹   T·S(vib)
   ------------------------------------------------------------------------
       1     20.98    -1.94958 (  3.01%)    -1.31295 ( 96.99%)    -1.33211
       2    129.86    -0.87896 ( 97.85%)    -0.77366 (  2.15%)    -0.87670
       3    296.33    -0.42860 ( 99.92%)    -0.52934 (  0.08%)    -0.42868
   ------------------------------------------------------------------------

   temp. (K)  partition function   enthalpy   heat capacity  entropy
                                   cal/mol     cal/K/mol   cal/K/mol   J/K/mol
 298.15  VIB   107.                 3140.247     23.992     17.742
         ROT  0.281E+06              888.752      2.981     27.911
         INT  0.300E+08             4029.000     26.973     45.653
         TR   0.107E+28             1481.254      4.968     39.906
         TOT                        5510.2535    31.9409    85.5587   357.9777

       T/K    H(0)-H(T)+PV         H(T)/Eh          T*S/Eh         G(T)/Eh
   ------------------------------------------------------------------------
    298.15    0.878115E-02    0.149250E+00    0.406517E-01    0.108599E+00
   ------------------------------------------------------------------------

         :::::::::::::::::::::::::::::::::::::::::::::::::::::
         ::                  THERMODYNAMIC                  ::
         :::::::::::::::::::::::::::::::::::::::::::::::::::::
         :: total free energy         -22.383586266790 Eh   ::
         ::.................................................::
         :: total energy              -22.492184923663 Eh   ::
         :: zero point energy           0.140469217240 Eh   ::
         :: G(RRHO) w/o ZPVE           -0.031870560368 Eh   ::
         :: G(RRHO) contrib.            0.108598656873 Eh   ::
         :::::::::::::::::::::::::::::::::::::::::::::::::::::

optimized geometry written to: xtbopt.xyz


           -------------------------------------------------
          | TOTAL ENERGY              -22.492184923663 Eh   |
          | TOTAL ENTHALPY            -22.342934558515 Eh   |
          | TOTAL FREE ENERGY         -22.383586266790 Eh   |
          | GRADIENT NORM               0.000177855952 Eh/α |
          | HOMO-LUMO GAP               3.768920248247 eV   |
           -------------------------------------------------

------------------------------------------------------------------------
 * finished run on 2021/11/15 at 09:36:19.850     
------------------------------------------------------------------------
 total:
 * wall-time:     0 d,  0 h,  0 min,  0.804 sec
 *  cpu-time:     0 d,  0 h,  0 min,  0.766 sec
 * ratio c/w:     0.952 speedup
 SCF:
 * wall-time:     0 d,  0 h,  0 min,  0.009 sec
 *  cpu-time:     0 d,  0 h,  0 min,  0.000 sec
 * ratio c/w:     0.000 speedup
 ANC optimizer:
 * wall-time:     0 d,  0 h,  0 min,  0.057 sec
 *  cpu-time:     0 d,  0 h,  0 min,  0.062 sec
 * ratio c/w:     1.096 speedup
 analytical hessian:
 * wall-time:     0 d,  0 h,  0 min,  0.696 sec
 *  cpu-time:     0 d,  0 h,  0 min,  0.688 sec
 * ratio c/w:     0.988 speedup

