 Entering Gaussian System
 *********************************************
 Gaussian 98:
 frequency output generated by the xtb code
 *********************************************
                         Standard orientation:
 --------------------------------------------------------------------
  Center     Atomic     Atomic              Coordinates (Angstroms)
  Number     Number      Type              X           Y           Z
 --------------------------------------------------------------------
    1          6             0        1.388964    0.001921   -0.013207
    2          6             0        0.673489   -1.189666   -0.013499
    3          6             0       -0.706533   -1.197171   -0.016455
    4          6             0       -1.425310   -0.000042   -0.016433
    5          6             0       -0.708163    1.197640   -0.016361
    6          6             0        0.672349    1.192059   -0.013377
    7          1             0        1.204714    2.133137   -0.015587
    8          1             0       -1.244412    2.136046   -0.018588
    9          7             0       -2.802851   -0.001094    0.053783
   10          1             0       -3.258581    0.846526   -0.241438
   11          1             0       -3.257361   -0.849143   -0.242075
   12          1             0       -1.241766   -2.136156   -0.018763
   13          1             0        1.208019   -2.129487   -0.015794
   14          6             0        2.889007   -0.000586    0.008601
   15          1             0        3.282985    0.920239   -0.414869
   16          1             0        3.250131   -0.083540    1.034343
   17          1             0        3.281440   -0.844515   -0.554506
 --------------------------------------------------------------------
     1 basis functions        1 primitive gaussians
     1 alpha electrons        1 beta electrons
 
 Harmonic frequencies (cm**-1), IR intensities (km*mol⁻¹),
 Raman scattering activities (A**4/amu), Raman depolarization ratios,
 reduced masses (AMU), force constants (mDyne/A) and normal coordinates:
                      1                      2                      3
                        a                      a                      a 
 Frequencies --    20.9832               129.8641               296.3320
 Red. masses --     1.3500                10.0583                 8.8075
 Frc consts  --     0.0000                 0.0000                 0.0000
 IR Inten    --     0.6940                 2.9786                 3.9257
 Raman Activ --     0.0000                 0.0000                 0.0000
 Depolar     --     0.0000                 0.0000                 0.0000
 Atom AN      X      Y      Z        X      Y      Z        X      Y      Z
   1   6     0.00  -0.03  -0.01     0.00  -0.00   0.09     0.00  -0.23   0.00
   2   6    -0.01  -0.02  -0.09    -0.00   0.00   0.26    -0.01  -0.24   0.00
   3   6    -0.01  -0.00  -0.08    -0.00  -0.00   0.26    -0.06  -0.17   0.01
   4   6    -0.00  -0.00   0.00     0.00  -0.00   0.05    -0.00  -0.13  -0.00
   5   6     0.01  -0.00   0.08     0.00  -0.00   0.27     0.06  -0.18  -0.01
   6   6     0.01  -0.02   0.07     0.00  -0.00   0.27     0.01  -0.24  -0.00
   7   1     0.01  -0.01   0.04     0.00  -0.00   0.09     0.01  -0.08  -0.00
   8   1     0.01  -0.00   0.04    -0.00  -0.00   0.09     0.03  -0.05  -0.00
   9   7     0.00   0.01   0.01    -0.03   0.00  -0.51    -0.00   0.42   0.00
  10   1     0.00   0.01   0.01     0.03   0.00  -0.19     0.12   0.19   0.04
  11   1    -0.00   0.01  -0.01     0.03  -0.00  -0.19    -0.13   0.19  -0.03
  12   1    -0.00  -0.00  -0.04    -0.00   0.00   0.08    -0.03  -0.05   0.00
  13   1    -0.01  -0.01  -0.05    -0.00  -0.00   0.08    -0.02  -0.08   0.00
  14   6    -0.00   0.04   0.02     0.01   0.00  -0.47     0.00   0.50  -0.00
  15   1    -0.00  -0.22  -0.50    -0.05  -0.01  -0.20    -0.17   0.23   0.03
  16   1    -0.01   0.59   0.05     0.13   0.02  -0.18     0.02   0.18  -0.00
  17   1     0.01  -0.30   0.47    -0.07  -0.01  -0.17     0.16   0.24  -0.03
                      4                      5                      6
                        a                      a                      a 
 Frequencies --   324.8606               364.3945               386.1577
 Red. masses --     9.7818                 4.2369                 7.6364
 Frc consts  --     0.0000                 0.0000                 0.0000
 IR Inten    --     1.9205                11.9982                 3.6350
 Raman Activ --     0.0000                 0.0000                 0.0000
 Depolar     --     0.0000                 0.0000                 0.0000
 Atom AN      X      Y      Z        X      Y      Z        X      Y      Z
   1   6     0.00  -0.00  -0.50     0.00  -0.07   0.00    -0.00   0.19   0.00
   2   6     0.01  -0.00  -0.24    -0.02  -0.05  -0.30     0.09   0.14  -0.27
   3   6     0.01  -0.00   0.33    -0.03   0.03   0.21     0.08  -0.17   0.30
   4   6     0.01  -0.00   0.31    -0.00   0.05  -0.00     0.00  -0.22  -0.00
   5   6     0.01   0.00   0.33     0.03   0.03  -0.21    -0.08  -0.17  -0.31
   6   6     0.01   0.00  -0.24     0.02  -0.05   0.30    -0.09   0.14   0.27
   7   1     0.00   0.00  -0.09     0.02  -0.02   0.18    -0.07   0.07   0.16
   8   1    -0.00  -0.00   0.16     0.02   0.01  -0.13    -0.07  -0.07  -0.18
   9   7    -0.03   0.00  -0.26    -0.00   0.07   0.00     0.00   0.18   0.00
  10   1     0.04  -0.00  -0.14    -0.05  -0.19  -0.51     0.13   0.20   0.22
  11   1     0.03   0.00  -0.13     0.05  -0.19   0.51    -0.13   0.20  -0.22
  12   1     0.00   0.00   0.16    -0.02   0.01   0.13     0.07  -0.08   0.18
  13   1     0.00  -0.00  -0.09    -0.02  -0.02  -0.18     0.07   0.07  -0.16
  14   6    -0.02   0.00   0.21     0.00   0.06  -0.00    -0.00  -0.15  -0.00
  15   1     0.07   0.01   0.15    -0.03   0.04   0.01     0.09  -0.09  -0.01
  16   1    -0.20  -0.01   0.13     0.01   0.02  -0.00    -0.01  -0.07   0.00
  17   1     0.10   0.00   0.13     0.03   0.04  -0.01    -0.08  -0.09   0.01
                      7                      8                      9
                        a                      a                      a 
 Frequencies --   405.1821               443.4692               481.0016
 Red. masses --     7.7388                11.3858                 7.9158
 Frc consts  --     0.0000                 0.0000                 0.0000
 IR Inten    --     2.1228                 9.0057                44.1659
 Raman Activ --     0.0000                 0.0000                 0.0000
 Depolar     --     0.0000                 0.0000                 0.0000
 Atom AN      X      Y      Z        X      Y      Z        X      Y      Z
   1   6     0.01  -0.20   0.00    -0.37  -0.01  -0.06     0.06   0.00  -0.46
   2   6    -0.11  -0.14  -0.16    -0.04  -0.19   0.03    -0.00   0.03   0.21
   3   6    -0.09   0.21   0.22     0.03  -0.19   0.01    -0.01   0.03   0.05
   4   6    -0.00   0.26   0.00     0.37   0.01  -0.07    -0.07  -0.00  -0.55
   5   6     0.08   0.21  -0.22     0.03   0.19   0.01    -0.01  -0.03   0.05
   6   6     0.11  -0.14   0.16    -0.03   0.17   0.03    -0.00  -0.03   0.21
   7   1     0.08  -0.07   0.10     0.06   0.01   0.04    -0.01  -0.00   0.27
   8   1     0.09   0.10  -0.13    -0.06   0.02   0.03     0.01  -0.00   0.22
   9   7    -0.01  -0.38  -0.00     0.50  -0.00  -0.03    -0.01   0.00   0.06
  10   1    -0.12  -0.04   0.35     0.10   0.01   0.07    -0.09   0.01   0.20
  11   1     0.11  -0.04  -0.35     0.11  -0.01   0.06    -0.09  -0.01   0.20
  12   1    -0.09   0.10   0.13    -0.06  -0.01   0.03     0.01   0.00   0.22
  13   1    -0.09  -0.07  -0.10     0.05  -0.01   0.03    -0.01   0.00   0.27
  14   6     0.01   0.14  -0.00    -0.47   0.01  -0.01     0.08  -0.00  -0.00
  15   1    -0.08   0.08   0.01    -0.13   0.00   0.00     0.07   0.00   0.05
  16   1     0.01   0.07  -0.00    -0.15   0.00   0.00    -0.11  -0.00   0.04
  17   1     0.08   0.08  -0.01    -0.12   0.00   0.00     0.09  -0.00   0.05
                     10                     11                     12
                        a                      a                      a 
 Frequencies --   549.6132               614.3725               660.7148
 Red. masses --     4.8230                11.2231                10.7459
 Frc consts  --     0.0000                 0.0000                 0.0000
 IR Inten    --   536.0553                 0.0606                13.7659
 Raman Activ --     0.0000                 0.0000                 0.0000
 Depolar     --     0.0000                 0.0000                 0.0000
 Atom AN      X      Y      Z        X      Y      Z        X      Y      Z
   1   6     0.04   0.00   0.14     0.00  -0.11   0.00    -0.01  -0.00   0.41
   2   6    -0.03   0.04  -0.09     0.39  -0.27   0.00    -0.00  -0.01  -0.34
   3   6    -0.03   0.00   0.07     0.38   0.26  -0.00    -0.00  -0.01   0.30
   4   6    -0.08  -0.00   0.12    -0.00   0.11   0.00     0.02   0.00  -0.53
   5   6    -0.03  -0.01   0.07    -0.38   0.26   0.00    -0.00   0.01   0.30
   6   6    -0.03  -0.03  -0.09    -0.39  -0.28  -0.00    -0.00   0.01  -0.34
   7   1    -0.02  -0.00  -0.09    -0.07  -0.09  -0.00     0.00   0.00  -0.06
   8   1     0.00   0.00  -0.04    -0.07   0.09   0.00    -0.00  -0.00   0.19
   9   7     0.18   0.00  -0.44    -0.00   0.12  -0.00    -0.01  -0.00   0.11
  10   1    -0.18   0.08   0.54     0.05   0.05  -0.01     0.00  -0.02  -0.05
  11   1    -0.18  -0.08   0.54    -0.05   0.05   0.01     0.00   0.02  -0.05
  12   1     0.00  -0.00  -0.04     0.07   0.09  -0.00    -0.00   0.00   0.19
  13   1    -0.02   0.00  -0.09     0.08  -0.09   0.00     0.00  -0.00  -0.06
  14   6     0.08  -0.00   0.02     0.00  -0.08   0.00    -0.00   0.00   0.05
  15   1     0.01  -0.00  -0.01     0.04  -0.04  -0.00    -0.05  -0.00  -0.04
  16   1     0.07   0.00  -0.01    -0.00  -0.04   0.00     0.14   0.00  -0.04
  17   1     0.00   0.00  -0.01    -0.03  -0.04   0.00    -0.07   0.00  -0.04
                     13                     14                     15
                        a                      a                      a 
 Frequencies --   759.0011               790.2120               858.3651
 Red. masses --    10.3564                 4.8023                 3.3495
 Frc consts  --     0.0000                 0.0000                 0.0000
 IR Inten    --     3.5044                36.5113                 0.1212
 Raman Activ --     0.0000                 0.0000                 0.0000
 Depolar     --     0.0000                 0.0000                 0.0000
 Atom AN      X      Y      Z        X      Y      Z        X      Y      Z
   1   6    -0.08  -0.00   0.01    -0.02  -0.00   0.15    -0.00   0.00   0.00
   2   6     0.29  -0.06   0.01     0.03  -0.01  -0.17     0.00   0.00  -0.17
   3   6     0.30   0.17   0.03     0.03   0.01  -0.26     0.00  -0.00  -0.28
   4   6    -0.16   0.00  -0.04    -0.02   0.00   0.33    -0.00   0.00   0.00
   5   6     0.30  -0.18   0.03     0.03  -0.01  -0.26    -0.00  -0.00   0.28
   6   6     0.29   0.05   0.01     0.03   0.01  -0.17    -0.00   0.00   0.16
   7   1     0.11  -0.00  -0.04     0.02   0.00   0.34    -0.00   0.00  -0.32
   8   1     0.14  -0.01  -0.05     0.01  -0.00   0.45     0.01   0.00  -0.53
   9   7    -0.37  -0.00  -0.03    -0.05   0.00  -0.08    -0.00   0.00  -0.00
  10   1    -0.13   0.01   0.07    -0.00   0.01   0.01    -0.00  -0.00  -0.00
  11   1    -0.13  -0.01   0.07    -0.00  -0.01   0.01     0.00  -0.00   0.00
  12   1     0.14   0.01  -0.05     0.01   0.00   0.45    -0.01   0.00   0.54
  13   1     0.11   0.00  -0.04     0.02  -0.00   0.33     0.00   0.00   0.33
  14   6    -0.49   0.00  -0.02    -0.05   0.00   0.05     0.00  -0.00   0.00
  15   1    -0.13   0.00   0.00    -0.06  -0.00  -0.04     0.00   0.00   0.00
  16   1    -0.16  -0.00   0.00     0.11   0.00  -0.03     0.00   0.00  -0.00
  17   1    -0.13  -0.00   0.00    -0.08   0.00  -0.04    -0.00   0.00  -0.00
                     16                     17                     18
                        a                      a                      a 
 Frequencies --   875.3243               900.0090               917.5983
 Red. masses --    10.9507                 2.5994                 3.8905
 Frc consts  --     0.0000                 0.0000                 0.0000
 IR Inten    --     0.6566                 0.0827                 0.0096
 Raman Activ --     0.0000                 0.0000                 0.0000
 Depolar     --     0.0000                 0.0000                 0.0000
 Atom AN      X      Y      Z        X      Y      Z        X      Y      Z
   1   6    -0.11   0.00  -0.01     0.00   0.00   0.02    -0.00  -0.00  -0.00
   2   6     0.13  -0.43   0.00     0.00  -0.01   0.20    -0.00  -0.00  -0.31
   3   6    -0.03  -0.37   0.01     0.00  -0.00  -0.15    -0.00  -0.00   0.20
   4   6    -0.00   0.00  -0.00     0.00   0.00  -0.05    -0.00   0.00   0.00
   5   6    -0.03   0.37   0.01     0.00   0.00  -0.16     0.00  -0.00  -0.19
   6   6     0.13   0.43   0.00     0.00   0.01   0.22     0.00  -0.00   0.30
   7   1     0.13   0.07   0.00    -0.00   0.00  -0.53    -0.00  -0.00  -0.51
   8   1    -0.07   0.07  -0.02    -0.01  -0.00   0.41    -0.00  -0.00   0.30
   9   7    -0.35  -0.00  -0.02    -0.00   0.00  -0.01     0.00   0.00   0.00
  10   1    -0.12  -0.00   0.03    -0.01  -0.00   0.00    -0.00  -0.00  -0.01
  11   1    -0.12   0.00   0.03    -0.01   0.00   0.00     0.00  -0.00   0.01
  12   1    -0.08  -0.07  -0.02    -0.01   0.00   0.39     0.00  -0.00  -0.32
  13   1     0.13  -0.07   0.00    -0.00  -0.00  -0.50     0.00  -0.00   0.53
  14   6     0.25   0.00   0.00     0.00  -0.00  -0.02     0.00   0.00   0.00
  15   1     0.09  -0.01   0.00     0.02   0.00   0.02     0.01  -0.00  -0.00
  16   1     0.08   0.00  -0.00    -0.04   0.00   0.01     0.00   0.00  -0.00
  17   1     0.09   0.01   0.00     0.02  -0.00   0.02    -0.01  -0.00  -0.00
                     19                     20                     21
                        a                      a                      a 
 Frequencies --  1003.1311              1016.3143              1031.2989
 Red. masses --     4.2273                 8.4488                 3.5962
 Frc consts  --     0.0000                 0.0000                 0.0000
 IR Inten    --     8.4244                 1.2093                 2.1143
 Raman Activ --     0.0000                 0.0000                 0.0000
 Depolar     --     0.0000                 0.0000                 0.0000
 Atom AN      X      Y      Z        X      Y      Z        X      Y      Z
   1   6    -0.00  -0.13   0.00    -0.13   0.00  -0.01     0.00  -0.01  -0.00
   2   6    -0.02   0.16  -0.00     0.01  -0.37  -0.00    -0.09  -0.01   0.00
   3   6     0.06   0.12   0.00     0.03   0.42   0.00    -0.04   0.13  -0.01
   4   6    -0.00  -0.11  -0.00    -0.06  -0.00   0.00     0.00  -0.11   0.00
   5   6    -0.06   0.12  -0.00     0.03  -0.41   0.00     0.04   0.13   0.01
   6   6     0.02   0.17   0.00     0.01   0.37  -0.00     0.09  -0.01  -0.00
   7   1     0.01   0.05  -0.01    -0.17   0.20   0.00     0.13  -0.07  -0.00
   8   1    -0.07   0.01   0.00    -0.20  -0.23  -0.01     0.09   0.08   0.00
   9   7    -0.00  -0.15   0.00     0.13  -0.00  -0.00    -0.00  -0.33  -0.00
  10   1     0.24   0.07  -0.06     0.05   0.01  -0.00     0.50   0.15  -0.12
  11   1    -0.24   0.07   0.05     0.04  -0.00   0.00    -0.50   0.15   0.12
  12   1     0.07   0.01  -0.00    -0.20   0.23  -0.01    -0.08   0.08  -0.00
  13   1    -0.01   0.04   0.01    -0.17  -0.20   0.00    -0.13  -0.06   0.00
  14   6    -0.00  -0.38  -0.00     0.13   0.00   0.01     0.00   0.20   0.00
  15   1    -0.51   0.14   0.02     0.05  -0.01  -0.00     0.25  -0.06  -0.01
  16   1     0.05   0.19   0.01     0.05  -0.00  -0.00    -0.02  -0.09  -0.00
  17   1     0.47   0.15  -0.03     0.04   0.00  -0.00    -0.23  -0.07   0.01
                     22                     23                     24
                        a                      a                      a 
 Frequencies --  1034.0572              1146.0626              1198.7342
 Red. masses --     4.4991                 2.4709                 1.7184
 Frc consts  --     0.0000                 0.0000                 0.0000
 IR Inten    --    12.0827                 0.6205                16.4518
 Raman Activ --     0.0000                 0.0000                 0.0000
 Depolar     --     0.0000                 0.0000                 0.0000
 Atom AN      X      Y      Z        X      Y      Z        X      Y      Z
   1   6     0.01  -0.00  -0.35     0.00  -0.15   0.00    -0.02  -0.00  -0.00
   2   6     0.00   0.00   0.05    -0.11   0.09  -0.00     0.07   0.12   0.00
   3   6     0.01  -0.01   0.02     0.11   0.10  -0.00    -0.06   0.07   0.00
   4   6    -0.00  -0.00  -0.01     0.00  -0.12   0.00     0.08  -0.00   0.00
   5   6     0.01   0.01   0.02    -0.11   0.10   0.00    -0.06  -0.07   0.00
   6   6     0.00  -0.00   0.05     0.12   0.09   0.00     0.07  -0.12   0.00
   7   1    -0.00   0.00  -0.06     0.39  -0.18  -0.00     0.40  -0.25  -0.00
   8   1     0.01   0.01  -0.03    -0.44  -0.20  -0.01    -0.43  -0.25  -0.01
   9   7    -0.01   0.00   0.01    -0.00   0.07  -0.00    -0.05   0.00  -0.01
  10   1    -0.00  -0.00  -0.01    -0.08  -0.02   0.02    -0.04  -0.01   0.01
  11   1    -0.00   0.00  -0.01     0.08  -0.02  -0.02    -0.04   0.01   0.01
  12   1     0.01  -0.01  -0.03     0.44  -0.20   0.01    -0.42   0.25  -0.01
  13   1    -0.00  -0.00  -0.07    -0.40  -0.18   0.00     0.40   0.25  -0.00
  14   6    -0.03  -0.00   0.43    -0.00   0.07  -0.00     0.01  -0.00   0.01
  15   1    -0.26  -0.04  -0.22     0.07  -0.01  -0.00     0.01  -0.01  -0.01
  16   1     0.62  -0.01  -0.12    -0.01  -0.03  -0.00     0.01   0.00  -0.00
  17   1    -0.34   0.05  -0.20    -0.06  -0.02   0.01     0.01   0.01  -0.01
                     25                     26                     27
                        a                      a                      a 
 Frequencies --  1230.6727              1288.3715              1316.2666
 Red. masses --     6.7945                 3.3660                10.2165
 Frc consts  --     0.0000                 0.0000                 0.0000
 IR Inten    --   110.0533                 0.0404               127.8513
 Raman Activ --     0.0000                 0.0000                 0.0000
 Depolar     --     0.0000                 0.0000                 0.0000
 Atom AN      X      Y      Z        X      Y      Z        X      Y      Z
   1   6     0.56   0.01   0.01    -0.00   0.25   0.00     0.37   0.02   0.00
   2   6     0.10   0.04  -0.00     0.12   0.08  -0.00     0.16  -0.16  -0.00
   3   6    -0.04  -0.16  -0.00     0.11  -0.09   0.00    -0.23  -0.03   0.00
   4   6     0.21   0.00   0.01    -0.00  -0.24  -0.00    -0.57   0.02  -0.01
   5   6    -0.05   0.16  -0.00    -0.11  -0.09  -0.00    -0.27   0.01   0.00
   6   6     0.10  -0.05  -0.00    -0.12   0.08   0.00     0.20   0.14   0.00
   7   1    -0.28   0.17   0.01     0.41  -0.23  -0.00     0.16  -0.01   0.00
   8   1    -0.28  -0.11  -0.00     0.35   0.19   0.00     0.02   0.07   0.00
   9   7    -0.13  -0.00  -0.01     0.00   0.08   0.00     0.30  -0.00   0.01
  10   1    -0.09  -0.03   0.01    -0.10  -0.03   0.02     0.23   0.07  -0.01
  11   1    -0.09   0.03   0.01     0.10  -0.03  -0.02     0.22  -0.07  -0.01
  12   1    -0.29   0.11  -0.00    -0.35   0.19  -0.00     0.03  -0.07   0.00
  13   1    -0.29  -0.18   0.01    -0.40  -0.22   0.00     0.15   0.01   0.00
  14   6    -0.26   0.00  -0.02    -0.00  -0.08  -0.00    -0.16  -0.00  -0.01
  15   1    -0.13   0.03   0.01    -0.07   0.02   0.01    -0.06   0.01   0.00
  16   1    -0.11  -0.00   0.01     0.01   0.05   0.00    -0.05   0.00   0.00
  17   1    -0.13  -0.03   0.01     0.07   0.03  -0.02    -0.05  -0.01   0.00
                     28                     29                     30
                        a                      a                      a 
 Frequencies --  1336.7254              1403.3352              1427.5087
 Red. masses --    11.5418                 3.2236                 9.7337
 Frc consts  --     0.0000                 0.0000                 0.0000
 IR Inten    --    22.4873                 0.0650                18.1653
 Raman Activ --     0.0000                 0.0000                 0.0000
 Depolar     --     0.0000                 0.0000                 0.0000
 Atom AN      X      Y      Z        X      Y      Z        X      Y      Z
   1   6    -0.03   0.45  -0.00     0.05   0.00  -0.00     0.00   0.34   0.00
   2   6    -0.33  -0.19  -0.00     0.01   0.02   0.00     0.34  -0.10   0.00
   3   6     0.33  -0.19  -0.00     0.00  -0.02   0.00    -0.37  -0.07  -0.00
   4   6     0.03   0.44   0.00    -0.01   0.01   0.00    -0.00   0.33  -0.00
   5   6    -0.30  -0.20   0.00    -0.00   0.02   0.00     0.37  -0.07   0.00
   6   6     0.31  -0.21   0.00     0.01  -0.02   0.00    -0.34  -0.10  -0.00
   7   1     0.03  -0.03   0.00    -0.03   0.01   0.00     0.11  -0.15   0.00
   8   1    -0.04  -0.03   0.00    -0.02  -0.01  -0.00    -0.13  -0.16  -0.00
   9   7    -0.01  -0.05  -0.00     0.00  -0.00   0.00    -0.00  -0.10   0.00
  10   1     0.07   0.02  -0.03    -0.00  -0.00  -0.00     0.10   0.02  -0.02
  11   1    -0.10   0.03   0.03    -0.01   0.00  -0.00    -0.10   0.02   0.02
  12   1     0.04  -0.02  -0.00    -0.02   0.00  -0.00     0.13  -0.16   0.00
  13   1    -0.04  -0.02  -0.00    -0.03  -0.01   0.00    -0.11  -0.15  -0.00
  14   6     0.01  -0.07   0.00    -0.44   0.01  -0.04    -0.00  -0.12  -0.00
  15   1    -0.06   0.02   0.02     0.45  -0.14   0.16    -0.03   0.02   0.06
  16   1     0.01   0.08   0.01     0.50   0.00  -0.19     0.00   0.14   0.01
  17   1     0.06   0.03  -0.03     0.46   0.10   0.19     0.03   0.04  -0.07
                     31                     32                     33
                        a                      a                      a 
 Frequencies --  1471.6855              1482.6998              1485.6400
 Red. masses --     3.5060                 1.6575                 1.8817
 Frc consts  --     0.0000                 0.0000                 0.0000
 IR Inten    --    27.5151                 6.9035                 0.8415
 Raman Activ --     0.0000                 0.0000                 0.0000
 Depolar     --     0.0000                 0.0000                 0.0000
 Atom AN      X      Y      Z        X      Y      Z        X      Y      Z
   1   6     0.16   0.00  -0.00     0.01   0.01   0.04    -0.00   0.04  -0.00
   2   6    -0.03  -0.11  -0.00     0.04   0.02  -0.00     0.05   0.01  -0.00
   3   6    -0.14   0.11  -0.00    -0.01  -0.02  -0.00    -0.02  -0.05  -0.00
   4   6     0.06  -0.00   0.05    -0.03   0.02   0.00     0.01   0.13  -0.00
   5   6    -0.14  -0.11  -0.00    -0.01   0.00  -0.00     0.02  -0.07   0.00
   6   6    -0.03   0.11  -0.00     0.02  -0.01  -0.00    -0.07   0.02   0.00
   7   1     0.10  -0.03   0.00    -0.03   0.01   0.00     0.05  -0.04  -0.00
   8   1     0.12   0.06   0.00    -0.01  -0.00   0.00     0.00  -0.02  -0.00
   9   7     0.30   0.00   0.04     0.04  -0.00   0.01    -0.01  -0.02  -0.00
  10   1    -0.48  -0.33  -0.15    -0.04  -0.03  -0.02     0.04   0.02  -0.00
  11   1    -0.48   0.33  -0.15    -0.05   0.03  -0.02    -0.01  -0.00   0.01
  12   1     0.12  -0.06   0.00    -0.01  -0.00   0.00     0.00  -0.02   0.00
  13   1     0.10   0.03   0.00    -0.04  -0.02   0.00    -0.02  -0.02   0.00
  14   6    -0.04   0.00  -0.02    -0.07   0.03   0.21     0.02   0.20  -0.03
  15   1    -0.03   0.02   0.03     0.16  -0.34  -0.58    -0.32   0.03  -0.27
  16   1     0.01  -0.00  -0.01    -0.26  -0.15   0.09     0.05  -0.68  -0.07
  17   1    -0.03  -0.03   0.03     0.27   0.38  -0.36     0.21  -0.19   0.44
                     34                     35                     36
                        a                      a                      a 
 Frequencies --  1516.7514              1577.8344              1621.7850
 Red. masses --     9.6319                11.3958                11.5159
 Frc consts  --     0.0000                 0.0000                 0.0000
 IR Inten    --   334.2822                 5.4383               140.0891
 Raman Activ --     0.0000                 0.0000                 0.0000
 Depolar     --     0.0000                 0.0000                 0.0000
 Atom AN      X      Y      Z        X      Y      Z        X      Y      Z
   1   6     0.38   0.00   0.00     0.00  -0.51   0.00     0.29  -0.01   0.00
   2   6    -0.21  -0.21   0.00     0.14   0.29   0.00    -0.42  -0.13  -0.00
   3   6    -0.16   0.20  -0.00     0.13  -0.28   0.00     0.42  -0.12   0.00
   4   6     0.49  -0.01  -0.02     0.01   0.52  -0.00    -0.30   0.00   0.00
   5   6    -0.15  -0.19  -0.00    -0.15  -0.29  -0.00     0.41   0.11   0.00
   6   6    -0.21   0.20   0.00    -0.14   0.29  -0.00    -0.42   0.14  -0.00
   7   1     0.18  -0.07  -0.00     0.08   0.00   0.00     0.08  -0.07   0.00
   8   1     0.17   0.06   0.00     0.08  -0.00   0.00    -0.07  -0.07  -0.00
   9   7    -0.28   0.00  -0.03    -0.00  -0.06  -0.00     0.08  -0.00   0.01
  10   1     0.13   0.13   0.08     0.06   0.02  -0.02    -0.02  -0.02  -0.03
  11   1     0.13  -0.13   0.08    -0.06   0.02   0.02    -0.02   0.02  -0.03
  12   1     0.18  -0.06   0.00    -0.08  -0.01  -0.00    -0.07   0.07  -0.00
  13   1     0.18   0.07  -0.00    -0.08   0.00  -0.00     0.08   0.07   0.00
  14   6    -0.11  -0.00   0.02    -0.00   0.03   0.00    -0.05   0.00   0.00
  15   1     0.01  -0.03  -0.04     0.08  -0.01   0.04    -0.01  -0.01  -0.01
  16   1    -0.03   0.01   0.01    -0.01   0.06   0.01    -0.03   0.00   0.01
  17   1     0.00   0.04  -0.04    -0.08   0.00  -0.05    -0.01   0.01  -0.02
                     37                     38                     39
                        a                      a                      a 
 Frequencies --  2987.1837              3027.2036              3034.3869
 Red. masses --     1.8200                 1.8405                 1.4684
 Frc consts  --     0.0000                 0.0000                 0.0000
 IR Inten    --    59.8436                53.3917                63.1975
 Raman Activ --     0.0000                 0.0000                 0.0000
 Depolar     --     0.0000                 0.0000                 0.0000
 Atom AN      X      Y      Z        X      Y      Z        X      Y      Z
   1   6    -0.01   0.00  -0.01     0.00  -0.01  -0.00     0.01   0.00  -0.00
   2   6     0.00  -0.00   0.00    -0.01   0.01   0.00    -0.00   0.00  -0.00
   3   6    -0.00  -0.00   0.00     0.00  -0.00   0.00     0.00   0.00   0.00
   4   6     0.00  -0.00  -0.00    -0.00   0.00   0.00    -0.00  -0.00   0.00
   5   6    -0.00   0.00   0.00     0.00  -0.00   0.00     0.00  -0.00   0.00
   6   6     0.00   0.00  -0.00     0.00   0.01  -0.00    -0.01  -0.01   0.00
   7   1    -0.00  -0.01  -0.00    -0.01  -0.01   0.00     0.03   0.05  -0.00
   8   1     0.00  -0.00   0.00    -0.01   0.01   0.00    -0.00   0.00  -0.00
   9   7    -0.00  -0.00   0.00     0.00   0.00  -0.00     0.00  -0.00  -0.00
  10   1    -0.00   0.00  -0.00     0.00  -0.00   0.00     0.00  -0.00   0.00
  11   1    -0.00  -0.00  -0.00     0.00   0.00   0.00     0.00   0.00   0.00
  12   1     0.00   0.00   0.00     0.00   0.00  -0.00    -0.01  -0.02  -0.00
  13   1    -0.01   0.01  -0.00     0.02  -0.04  -0.00     0.01  -0.01  -0.00
  14   6    -0.05   0.01  -0.27     0.06  -0.26  -0.06     0.12   0.13  -0.10
  15   1    -0.05  -0.10   0.01     0.13   0.26  -0.15    -0.31  -0.77   0.35
  16   1     0.30  -0.07   0.89    -0.03  -0.03  -0.11    -0.04   0.03  -0.17
  17   1    -0.06   0.13   0.04    -0.31   0.69   0.48    -0.10   0.28   0.16
                     40                     41                     42
                        a                      a                      a 
 Frequencies --  3054.4234              3057.4927              3066.6973
 Red. masses --     1.7712                 1.7623                 1.8743
 Frc consts  --     0.0000                 0.0000                 0.0000
 IR Inten    --     8.4521               143.8060               373.7816
 Raman Activ --     0.0000                 0.0000                 0.0000
 Depolar     --     0.0000                 0.0000                 0.0000
 Atom AN      X      Y      Z        X      Y      Z        X      Y      Z
   1   6    -0.00  -0.01   0.00    -0.01   0.00   0.00    -0.00   0.00   0.00
   2   6     0.07  -0.11  -0.00    -0.07   0.13   0.00     0.06  -0.11  -0.00
   3   6     0.05   0.09   0.00    -0.06  -0.11  -0.00    -0.07  -0.13  -0.00
   4   6    -0.00   0.01  -0.00    -0.01  -0.00  -0.00     0.00   0.00  -0.00
   5   6    -0.06   0.11  -0.00    -0.05   0.09  -0.00     0.08  -0.14   0.00
   6   6    -0.08  -0.14   0.00    -0.06  -0.12   0.00    -0.06  -0.11   0.00
   7   1     0.29   0.51  -0.00     0.24   0.42  -0.00     0.21   0.36  -0.00
   8   1     0.22  -0.39   0.00     0.19  -0.34   0.00    -0.27   0.48  -0.00
   9   7    -0.00  -0.00   0.00    -0.00   0.00   0.00    -0.00   0.00   0.00
  10   1     0.00   0.00  -0.00     0.00   0.00  -0.00     0.00  -0.00  -0.00
  11   1    -0.00   0.00   0.00     0.00  -0.00  -0.00    -0.00  -0.00   0.00
  12   1    -0.19  -0.34  -0.00     0.24   0.43   0.00     0.25   0.45   0.00
  13   1    -0.24   0.42   0.00     0.27  -0.48  -0.00    -0.21   0.37   0.00
  14   6    -0.00  -0.01   0.00    -0.00   0.00   0.00    -0.00  -0.01   0.00
  15   1     0.02   0.04  -0.02     0.01   0.01  -0.01     0.01   0.01  -0.01
  16   1    -0.00  -0.00   0.00     0.00  -0.00   0.01    -0.00  -0.00  -0.00
  17   1    -0.01   0.02   0.02     0.01  -0.02  -0.01    -0.01   0.01   0.01
                     43                     44                     45
                        a                      a                      a 
 Frequencies --  3074.6796              3467.5575              3522.9047
 Red. masses --     1.8755                 1.4558                 2.1587
 Frc consts  --     0.0000                 0.0000                 0.0000
 IR Inten    --     1.4213                12.8391                11.2287
 Raman Activ --     0.0000                 0.0000                 0.0000
 Depolar     --     0.0000                 0.0000                 0.0000
 Atom AN      X      Y      Z        X      Y      Z        X      Y      Z
   1   6     0.01   0.00  -0.00    -0.00  -0.00  -0.00     0.00   0.00  -0.00
   2   6     0.06  -0.12  -0.00     0.00  -0.00  -0.00    -0.00  -0.00  -0.00
   3   6    -0.07  -0.13  -0.00    -0.00   0.00   0.00     0.00   0.00   0.00
   4   6    -0.01   0.00   0.00     0.00   0.00   0.00     0.00  -0.01  -0.00
   5   6    -0.07   0.13  -0.00    -0.00  -0.00   0.00    -0.00   0.00  -0.00
   6   6     0.06   0.11  -0.00     0.00   0.00  -0.00     0.00  -0.00   0.00
   7   1    -0.21  -0.37   0.00    -0.00  -0.00   0.00    -0.00   0.00  -0.00
   8   1     0.25  -0.44   0.00     0.00  -0.00   0.00    -0.00   0.00   0.00
   9   7     0.00   0.00  -0.00     0.16   0.00   0.09     0.00  -0.30  -0.00
  10   1     0.00  -0.00   0.00    -0.30   0.60  -0.18    -0.32   0.56  -0.20
  11   1     0.00   0.00   0.00    -0.30  -0.60  -0.18     0.31   0.56   0.20
  12   1     0.26   0.46   0.00     0.00   0.00   0.00     0.00   0.00  -0.00
  13   1    -0.22   0.39   0.00    -0.00   0.00   0.00     0.00   0.00   0.00
  14   6     0.01   0.00  -0.00     0.00  -0.00   0.00    -0.00  -0.00  -0.00
  15   1    -0.01  -0.03   0.01    -0.00  -0.00   0.00     0.00   0.00  -0.00
  16   1    -0.01   0.00  -0.02    -0.00   0.00  -0.00    -0.00  -0.00  -0.00
  17   1    -0.01   0.02   0.02    -0.00   0.00   0.00    -0.00   0.00   0.00
