      -----------------------------------------------------------      
     |                   =====================                   |     
     |                           x T B                           |     
     |                   =====================                   |     
     |                         S. Grimme                         |     
     |          Mulliken Center for Theoretical Chemistry        |     
     |                    University of Bonn                     |     
      -----------------------------------------------------------      

   * xtb version 6.4.1 (afa7bdf) compiled by 'ehlert@majestix' on 2021-06-10

   xtb is free software: you can redistribute it and/or modify it under
   the terms of the GNU Lesser General Public License as published by
   the Free Software Foundation, either version 3 of the License, or
   (at your option) any later version.
   
   xtb is distributed in the hope that it will be useful,
   but WITHOUT ANY WARRANTY; without even the implied warranty of
   MERCHANTABILITY or FITNESS FOR A PARTICULAR PURPOSE.  See the
   GNU Lesser General Public License for more details.
   
   Cite this work as:
   * C. Bannwarth, E. Caldeweyher, S. Ehlert, A. Hansen, P. Pracht,
     J. Seibert, S. Spicher, S. Grimme, WIREs Comput. Mol. Sci., 2020, 11,
     e01493. DOI: 10.1002/wcms.1493
   
   for GFN2-xTB:
   * C. Bannwarth, S. Ehlert and S. Grimme., J. Chem. Theory Comput., 2019,
     15, 1652-1671. DOI: 10.1021/acs.jctc.8b01176
   for GFN1-xTB:
   * S. Grimme, C. Bannwarth, P. Shushkov, J. Chem. Theory Comput., 2017,
     13, 1989-2009. DOI: 10.1021/acs.jctc.7b00118
   for GFN0-xTB:
   * P. Pracht, E. Caldeweyher, S. Ehlert, S. Grimme, ChemRxiv, 2019, preprint.
     DOI: 10.26434/chemrxiv.8326202.v1
   for GFN-FF:
   * S. Spicher and S. Grimme, Angew. Chem. Int. Ed., 2020, 59, 15665-15673.
     DOI: 10.1002/anie.202004239
   
   for DFT-D4:
   * E. Caldeweyher, C. Bannwarth and S. Grimme, J. Chem. Phys., 2017,
     147, 034112. DOI: 10.1063/1.4993215
   * E. Caldeweyher, S. Ehlert, A. Hansen, H. Neugebauer, S. Spicher,
     C. Bannwarth and S. Grimme, J. Chem. Phys., 2019, 150, 154122.
     DOI: 10.1063/1.5090222
   * E. Caldeweyher, J.-M. Mewes, S. Ehlert and S. Grimme, Phys. Chem. Chem. Phys.
     2020, 22, 8499-8512. DOI: 10.1039/D0CP00502A
   
   for sTDA-xTB:
   * S. Grimme and C. Bannwarth, J. Chem. Phys., 2016, 145, 054103.
     DOI: 10.1063/1.4959605
   
   in the mass-spec context:
   * V. Asgeirsson, C. Bauer and S. Grimme, Chem. Sci., 2017, 8, 4879.
     DOI: 10.1039/c7sc00601b
   * J. Koopman and S. Grimme, ACS Omega 2019, 4, 12, 15120-15133.
     DOI: 10.1021/acsomega.9b02011
   
   for metadynamics refer to:
   * S. Grimme, J. Chem. Theory Comput., 2019, 155, 2847-2862
     DOI: 10.1021/acs.jctc.9b00143
   
   for SPH calculations refer to:
   * S. Spicher and S. Grimme, J. Chem. Theory Comput., 2021, 17, 1701-1714
     DOI: 10.1021/acs.jctc.0c01306
   
   with help from (in alphabetical order)
   P. Atkinson, C. Bannwarth, F. Bohle, G. Brandenburg, E. Caldeweyher
   M. Checinski, S. Dohm, S. Ehlert, S. Ehrlich, I. Gerasimov, J. Koopman
   C. Lavigne, S. Lehtola, F. März, M. Müller, F. Musil, H. Neugebauer
   J. Pisarek, C. Plett, P. Pracht, J. Seibert, P. Shushkov, S. Spicher
   M. Stahn, M. Steiner, T. Strunk, J. Stückrath, T. Rose, and J. Unsleber
   
 * started run on 2021/11/15 at 09:36:17.075     

           -------------------------------------------------
          |                Calculation Setup                |
           -------------------------------------------------

          program call               : xtb 20_2-methoxy-5-nitroaniline.xyz --gfn2 --chrg 0 --uhf 0 --alpb water --ohess -P 1
          coordinate file            : 20_2-methoxy-5-nitroaniline.xyz
          omp threads                :                     1
          number of atoms            :                    20
          number of electrons        :                    64
          charge                     :                     0
          spin                       :                   0.0
          first test random number   :      0.14253728935293

   ID    Z sym.   atoms
    1    6 C      1-6, 17
    2    1 H      7, 8, 10, 11, 15, 18-20
    3    7 N      9, 12
    4    8 O      13, 14, 16

           -------------------------------------------------
          |                 G F N 2 - x T B                 |
           -------------------------------------------------

        Reference                      10.1021/acs.jctc.8b01176
      * Hamiltonian:
        H0-scaling (s, p, d)           1.850000    2.230000    2.230000
        zeta-weighting                 0.500000
      * Dispersion:
        s8                             2.700000
        a1                             0.520000
        a2                             5.000000
        s9                             5.000000
      * Repulsion:
        kExp                           1.500000    1.000000
        rExp                           1.000000
      * Coulomb:
        alpha                          2.000000
        third order                    shell-resolved
        anisotropic                    true
        a3                             3.000000
        a5                             4.000000
        cn-shift                       1.200000
        cn-exp                         4.000000
        max-rad                        5.000000

      * Solvation model:               ALPB
        Solvent                        water
        Parameter file                 internal GFN2-xTB/ALPB
        Dielectric constant                8.0200E+01
        Reference state                gsolv [1 M gas/solution]
        Free energy shift                  1.0808E-03 Eh       6.7819E-01 kcal/mol
        Temperature                        2.9815E+02 K
        Density                            1.0000E+00 kg/L
        Solvent mass                       1.8000E+01 g/mol
        Interaction kernel             P16
        Born radius scaling (c1)           1.4744E+00
        Born radii integrator          GBOBC
        Born offset                        0.0000E+00 a0       0.0000E+00 AA
        H-bond correction              true
        Ion screening                  false
        Surface tension                    1.0000E-05 Eh       1.5569E+01 dyn/cm
        Grid points                               230 per atom

          ...................................................
          :                      SETUP                      :
          :.................................................:
          :  # basis functions                  56          :
          :  # atomic orbitals                  56          :
          :  # shells                           32          :
          :  # electrons                        64          :
          :  max. iterations                   250          :
          :  Hamiltonian                  GFN2-xTB          :
          :  restarted?                      false          :
          :  GBSA solvation                   true          :
          :  PC potential                    false          :
          :  electronic temp.          300.0000000     K    :
          :  accuracy                    1.0000000          :
          :  -> integral cutoff          0.2500000E+02      :
          :  -> integral neglect         0.1000000E-07      :
          :  -> SCF convergence          0.1000000E-05 Eh   :
          :  -> wf. convergence          0.1000000E-03 e    :
          :  Broyden damping             0.4000000          :
          ...................................................

 iter      E             dE          RMSdq      gap      omega  full diag
   1    -37.3138538 -0.373139E+02  0.559E+00    1.69       0.0  T
   2    -37.4333457 -0.119492E+00  0.284E+00    1.40       1.0  T
   3    -37.4354526 -0.210689E-02  0.133E+00    1.42       1.0  T
   4    -37.4343701  0.108252E-02  0.669E-01    1.45       1.0  T
   5    -37.4394463 -0.507623E-02  0.121E-01    1.40       1.0  T
   6    -37.4395124 -0.661154E-04  0.609E-02    1.39       1.0  T
   7    -37.4395173 -0.492584E-05  0.270E-02    1.38       1.0  T
   8    -37.4395205 -0.320298E-05  0.678E-03    1.38       3.3  T
   9    -37.4395207 -0.160863E-06  0.317E-03    1.38       7.1  T
  10    -37.4395208 -0.493441E-07  0.181E-03    1.38      12.3  T
  11    -37.4395208 -0.925557E-08  0.365E-04    1.38      61.2  T
  12    -37.4395208 -0.353481E-09  0.228E-04    1.38      98.1  T

   *** convergence criteria satisfied after 12 iterations ***

         #    Occupation            Energy/Eh            Energy/eV
      -------------------------------------------------------------
         1        2.0000           -0.7652852             -20.8245
       ...           ...                  ...                  ...
        26        2.0000           -0.4655535             -12.6684
        27        2.0000           -0.4583576             -12.4725
        28        2.0000           -0.4525353             -12.3141
        29        2.0000           -0.4437781             -12.0758
        30        2.0000           -0.4393304             -11.9548
        31        2.0000           -0.4125601             -11.2263
        32        2.0000           -0.3721541             -10.1268 (HOMO)
        33                         -0.3213434              -8.7442 (LUMO)
        34                         -0.2343579              -6.3772
        35                         -0.2195819              -5.9751
        36                         -0.1058356              -2.8799
        37                         -0.0229098              -0.6234
       ...                                ...                  ...
        56                          0.6328232              17.2200
      -------------------------------------------------------------
                  HL-Gap            0.0508107 Eh            1.3826 eV
             Fermi-level           -0.3467488 Eh           -9.4355 eV

 SCC (total)                   0 d,  0 h,  0 min,  0.014 sec
 SCC setup                      ...        0 min,  0.001 sec (  3.584%)
 Dispersion                     ...        0 min,  0.000 sec (  1.058%)
 classical contributions        ...        0 min,  0.000 sec (  0.183%)
 integral evaluation            ...        0 min,  0.002 sec ( 15.447%)
 iterations                     ...        0 min,  0.007 sec ( 47.842%)
 molecular gradient             ...        0 min,  0.004 sec ( 30.463%)
 printout                       ...        0 min,  0.000 sec (  1.276%)

         :::::::::::::::::::::::::::::::::::::::::::::::::::::
         ::                     SUMMARY                     ::
         :::::::::::::::::::::::::::::::::::::::::::::::::::::
         :: total energy             -37.028959228730 Eh    ::
         :: total w/o Gsasa/hb       -37.025816437140 Eh    ::
         :: gradient norm              0.036535646014 Eh/a0 ::
         :: HOMO-LUMO gap              1.382629587440 eV    ::
         ::.................................................::
         :: SCC energy               -37.439520764838 Eh    ::
         :: -> isotropic ES            0.095771727668 Eh    ::
         :: -> anisotropic ES          0.004754357683 Eh    ::
         :: -> anisotropic XC          0.007044735710 Eh    ::
         :: -> dispersion             -0.016939673649 Eh    ::
         :: -> Gsolv                  -0.024206360587 Eh    ::
         ::    -> Gelec               -0.021063568996 Eh    ::
         ::    -> Gsasa                0.001869751610 Eh    ::
         ::    -> Ghb                 -0.006093302898 Eh    ::
         ::    -> Gshift               0.001080759698 Eh    ::
         :: repulsion energy           0.410540707297 Eh    ::
         :: add. restraining           0.000000000000 Eh    ::
         :: total charge               0.000000000000 e     ::
         :::::::::::::::::::::::::::::::::::::::::::::::::::::

      ----------------------------------------------------------- 
     |                   =====================                   |
     |                        A N C O P T                        |
     |                   =====================                   |
     |               Approximate Normal Coordinate               |
     |                Rational Function Optimizer                |
      ----------------------------------------------------------- 

          ...................................................
          :                      SETUP                      :
          :.................................................:
          :   optimization level            normal          :
          :   max. optcycles                   200          :
          :   ANC micro-cycles                  20          :
          :   degrees of freedom                54          :
          :.................................................:
          :   RF solver                   davidson          :
          :   write xtbopt.log                true          :
          :   linear?                        false          :
          :   energy convergence         0.5000000E-05 Eh   :
          :   grad. convergence          0.1000000E-02 Eh/α :
          :   maximium RF displ.         1.0000000          :
          :   Hlow (freq-cutoff)         0.1000000E-01      :
          :   Hmax (freq-cutoff)         5.0000000          :
          :   S6 in model hess.         20.0000000          :
          ...................................................

generating ANC from model Hessian ...
Using Lindh-Hessian (1995)
 Shifting diagonal of input Hessian by   8.217182638183372E-003
 Lowest  eigenvalues of input Hessian
    0.000000    0.000000    0.000000    0.000000    0.000000    0.000000
    0.010000    0.012660    0.014586    0.014886    0.017863    0.021923
    0.023339    0.025920    0.028704    0.032486    0.039258    0.055722
 Highest eigenvalues
    1.795905    1.893323    1.993894    2.061589    2.168009    2.484362
 

........................................................................
.............................. CYCLE    1 ..............................
........................................................................
   1    -37.4395208 -0.374395E+02  0.972E-05    1.38       0.0  T
   2    -37.4395208 -0.563034E-10  0.686E-05    1.38     326.1  T
   3    -37.4395208 -0.219202E-10  0.463E-05    1.38     482.4  T
     SCC iter.                  ...        0 min,  0.002 sec
     gradient                   ...        0 min,  0.004 sec
 * total energy  :   -37.0289592 Eh     change       -0.1807692E-09 Eh
   gradient norm :     0.0365359 Eh/α   predicted     0.0000000E+00 (-100.00%)
   displ. norm   :     0.1125506 α      lambda       -0.2181293E-02
   maximum displ.:     0.0562775 α      in ANC's #17, #26, #12, ...

........................................................................
.............................. CYCLE    2 ..............................
........................................................................
   1    -37.4520399 -0.374520E+02  0.124E-01    1.40       0.0  T
   2    -37.4520912 -0.512868E-04  0.667E-02    1.41       1.0  T
   3    -37.4520926 -0.141362E-05  0.400E-02    1.40       1.0  T
   4    -37.4520976 -0.507243E-05  0.123E-02    1.41       1.8  T
   5    -37.4520988 -0.116804E-05  0.360E-03    1.41       6.2  T
   6    -37.4520989 -0.102165E-06  0.203E-03    1.41      11.0  T
   7    -37.4520989 -0.136948E-07  0.861E-04    1.41      26.0  T
   8    -37.4520989 -0.283942E-08  0.284E-04    1.41      78.7  T
     SCC iter.                  ...        0 min,  0.004 sec
     gradient                   ...        0 min,  0.004 sec
 * total energy  :   -37.0305212 Eh     change       -0.1561959E-02 Eh
   gradient norm :     0.0210553 Eh/α   predicted    -0.1104479E-02 ( -29.29%)
   displ. norm   :     0.1076813 α      lambda       -0.1037401E-02
   maximum displ.:     0.0472060 α      in ANC's #3, #26, #17, ...

........................................................................
.............................. CYCLE    3 ..............................
........................................................................
   1    -37.4590799 -0.374591E+02  0.123E-01    1.37       0.0  T
   2    -37.4591237 -0.438332E-04  0.648E-02    1.40       1.0  T
   3    -37.4591279 -0.422657E-05  0.435E-02    1.40       1.0  T
   4    -37.4591385 -0.105243E-04  0.111E-02    1.40       2.0  T
   5    -37.4591390 -0.583103E-06  0.435E-03    1.40       5.1  T
   6    -37.4591393 -0.220303E-06  0.181E-03    1.40      12.4  T
   7    -37.4591393 -0.588574E-08  0.728E-04    1.40      30.7  T
   8    -37.4591393 -0.178299E-08  0.239E-04    1.40      93.7  T
     SCC iter.                  ...        0 min,  0.004 sec
     gradient                   ...        0 min,  0.004 sec
 * total energy  :   -37.0311160 Eh     change       -0.5947859E-03 Eh
   gradient norm :     0.0099793 Eh/α   predicted    -0.5247293E-03 ( -11.78%)
   displ. norm   :     0.0605530 α      lambda       -0.2345471E-03
   maximum displ.:     0.0276894 α      in ANC's #3, #13, #5, ...

........................................................................
.............................. CYCLE    4 ..............................
........................................................................
   1    -37.4591150 -0.374591E+02  0.586E-02    1.36       0.0  T
   2    -37.4591232 -0.817322E-05  0.325E-02    1.38       1.0  T
   3    -37.4591251 -0.191768E-05  0.216E-02    1.38       1.0  T
   4    -37.4591283 -0.316400E-05  0.461E-03    1.38       4.8  T
   5    -37.4591284 -0.105134E-06  0.199E-03    1.38      11.3  T
   6    -37.4591284 -0.371092E-07  0.873E-04    1.38      25.6  T
   7    -37.4591284 -0.858535E-09  0.260E-04    1.38      85.9  T
     SCC iter.                  ...        0 min,  0.004 sec
     gradient                   ...        0 min,  0.004 sec
 * total energy  :   -37.0312434 Eh     change       -0.1273914E-03 Eh
   gradient norm :     0.0079843 Eh/α   predicted    -0.1177081E-03 (  -7.60%)
   displ. norm   :     0.0797408 α      lambda       -0.2454002E-03
   maximum displ.:     0.0479968 α      in ANC's #3, #15, #4, ...

........................................................................
.............................. CYCLE    5 ..............................
........................................................................
   1    -37.4576976 -0.374577E+02  0.724E-02    1.32       0.0  T
   2    -37.4577109 -0.133010E-04  0.412E-02    1.34       1.0  T
   3    -37.4577138 -0.286518E-05  0.269E-02    1.34       1.0  T
   4    -37.4577187 -0.487993E-05  0.653E-03    1.35       3.4  T
   5    -37.4577189 -0.220020E-06  0.268E-03    1.35       8.3  T
   6    -37.4577190 -0.614804E-07  0.125E-03    1.35      17.9  T
   7    -37.4577190 -0.238385E-08  0.349E-04    1.35      64.0  T
   8    -37.4577190 -0.636220E-09  0.168E-04    1.35     132.9  T
     SCC iter.                  ...        0 min,  0.005 sec
     gradient                   ...        0 min,  0.004 sec
 * total energy  :   -37.0313711 Eh     change       -0.1277478E-03 Eh
   gradient norm :     0.0072587 Eh/α   predicted    -0.1234905E-03 (  -3.33%)
   displ. norm   :     0.0219262 α      lambda       -0.5463529E-04
   maximum displ.:     0.0111266 α      in ANC's #3, #5, #2, ...

........................................................................
.............................. CYCLE    6 ..............................
........................................................................
   1    -37.4574754 -0.374575E+02  0.217E-02    1.33       0.0  T
   2    -37.4574763 -0.874236E-06  0.115E-02    1.34       2.0  T
   3    -37.4574763  0.129185E-07  0.630E-03    1.34       3.5  T
   4    -37.4574764 -0.163171E-06  0.157E-03    1.34      14.3  T
   5    -37.4574764 -0.124500E-07  0.613E-04    1.34      36.5  T
   6    -37.4574764 -0.213165E-08  0.323E-04    1.34      69.3  T
     SCC iter.                  ...        0 min,  0.004 sec
     gradient                   ...        0 min,  0.005 sec
 * total energy  :   -37.0314104 Eh     change       -0.3933012E-04 Eh
   gradient norm :     0.0045204 Eh/α   predicted    -0.2734985E-04 ( -30.46%)
   displ. norm   :     0.0357956 α      lambda       -0.4247390E-04
   maximum displ.:     0.0225024 α      in ANC's #3, #30, #13, ...

........................................................................
.............................. CYCLE    7 ..............................
........................................................................
   1    -37.4579002 -0.374579E+02  0.344E-02    1.33       0.0  T
   2    -37.4579026 -0.239403E-05  0.179E-02    1.33       1.2  T
   3    -37.4579028 -0.216637E-06  0.112E-02    1.33       2.0  T
   4    -37.4579034 -0.599988E-06  0.217E-03    1.33      10.3  T
   5    -37.4579034 -0.252366E-07  0.109E-03    1.33      20.4  T
   6    -37.4579034 -0.841245E-08  0.489E-04    1.33      45.7  T
   7    -37.4579034 -0.772701E-09  0.166E-04    1.33     134.3  T
     SCC iter.                  ...        0 min,  0.004 sec
     gradient                   ...        0 min,  0.005 sec
 * total energy  :   -37.0314390 Eh     change       -0.2855509E-04 Eh
   gradient norm :     0.0025638 Eh/α   predicted    -0.2128514E-04 ( -25.46%)
   displ. norm   :     0.0259340 α      lambda       -0.1659193E-04
   maximum displ.:     0.0157394 α      in ANC's #3, #30, #26, ...

........................................................................
.............................. CYCLE    8 ..............................
........................................................................
   1    -37.4586024 -0.374586E+02  0.258E-02    1.32       0.0  T
   2    -37.4586044 -0.200758E-05  0.136E-02    1.32       1.6  T
   3    -37.4586048 -0.363043E-06  0.847E-03    1.32       2.6  T
   4    -37.4586051 -0.277140E-06  0.194E-03    1.32      11.5  T
   5    -37.4586051 -0.255833E-07  0.876E-04    1.32      25.5  T
   6    -37.4586051 -0.548636E-08  0.433E-04    1.32      51.7  T
     SCC iter.                  ...        0 min,  0.004 sec
     gradient                   ...        0 min,  0.004 sec
 * total energy  :   -37.0314499 Eh     change       -0.1089220E-04 Eh
   gradient norm :     0.0013469 Eh/α   predicted    -0.8312628E-05 ( -23.68%)
   displ. norm   :     0.0196212 α      lambda       -0.4427172E-05
   maximum displ.:     0.0114590 α      in ANC's #3, #30, #26, ...

........................................................................
.............................. CYCLE    9 ..............................
........................................................................
   1    -37.4591604 -0.374592E+02  0.190E-02    1.32       0.0  T
   2    -37.4591616 -0.127191E-05  0.102E-02    1.32       2.2  T
   3    -37.4591619 -0.240592E-06  0.629E-03    1.32       3.6  T
   4    -37.4591620 -0.135386E-06  0.157E-03    1.32      14.3  T
   5    -37.4591620 -0.152736E-07  0.721E-04    1.32      31.0  T
   6    -37.4591620 -0.383911E-08  0.368E-04    1.32      60.7  T
     SCC iter.                  ...        0 min,  0.004 sec
     gradient                   ...        0 min,  0.004 sec
 * total energy  :   -37.0314529 Eh     change       -0.3000753E-05 Eh
   gradient norm :     0.0006217 Eh/α   predicted    -0.2221440E-05 ( -25.97%)
   displ. norm   :     0.0044891 α      lambda       -0.4408581E-06
   maximum displ.:     0.0019355 α      in ANC's #3, #6, #2, ...

   *** GEOMETRY OPTIMIZATION CONVERGED AFTER 9 ITERATIONS ***

------------------------------------------------------------------------
 total energy gain   :        -0.0024937 Eh       -1.5648 kcal/mol
 total RMSD          :         0.0878133 a0        0.0465 Å
 total power (kW/mol):        -0.7274566 (step)  -64.7491 (real)
------------------------------------------------------------------------

 ANCopt (total)                0 d,  0 h,  0 min,  0.101 sec
 optimizer setup                ...        0 min,  0.000 sec (  0.160%)
 model hessian                  ...        0 min,  0.002 sec (  1.975%)
 ANC generation                 ...        0 min,  0.000 sec (  0.341%)
 coordinate transformation      ...        0 min,  0.000 sec (  0.061%)
 single point calculation       ...        0 min,  0.096 sec ( 94.863%)
 optimization log               ...        0 min,  0.002 sec (  1.607%)
 hessian update                 ...        0 min,  0.000 sec (  0.062%)
 rational function              ...        0 min,  0.000 sec (  0.466%)

================
 final structure:
================
20
 xtb: 6.4.1 (afa7bdf)
C        -0.59273203606588   -1.34465764950198    0.01235933017464
C         0.78792998335350   -1.32217418643497    0.00197633900558
C         1.47642231816158   -0.11533391742057   -0.01891696616966
C         0.76609020818981    1.12313334678677   -0.02971620574678
C        -0.61918176787583    1.08551711811910   -0.02452559771515
C        -1.29238282775903   -0.13927743199173   -0.00176927253692
H         1.32410935722741   -2.25589215841802    0.00943878972149
H        -1.19437363311668    1.99715726342035   -0.03442929774032
N         1.46375902360709    2.28631721424642    0.00594882966365
H         2.45012219941107    2.24043305057004   -0.18248920309912
H         0.97647288173165    3.14258077046939   -0.18724302501760
N        -2.69534232755504   -0.15372284203383    0.00206894598966
O        -3.28320811241367   -1.23529822426040    0.02120104275961
O        -3.30403449727869    0.91563380554762   -0.01481629821965
H        -1.13834419321208   -2.27350020728581    0.02905695470892
O         2.82007204659030    0.00770594874527   -0.03936046744748
C         3.62725190696339   -1.15777027630913   -0.02500093026341
H         3.44132478354016   -1.77504666600819   -0.90618164547556
H         4.65186291889104   -0.79413559485795   -0.04012403519123
H         3.45631476760990   -1.74104136338238    0.88172171259933
 
 Bond Distances (Angstroems)
 ---------------------------
C1-C2=1.3809         C1-C6=1.3938         C1-H15=1.0774        C2-C1=1.3809         C2-C3=1.3896         C2-H7=1.0767         
C3-C2=1.3896         C3-C4=1.4278         C3-O16=1.3494        C4-C3=1.4278         C4-C5=1.3858         C4-N9=1.3568         
C5-C4=1.3858         C5-C6=1.3978         C5-H8=1.0780         C6-C1=1.3938         C6-C5=1.3978         C6-N12=1.4030        
H7-C2=1.0767         H8-C5=1.0780         N9-C4=1.3568         N9-H10=1.0052        N9-H11=1.0040        H10-N9=1.0052        
H11-N9=1.0040        N12-C6=1.4030        N12-O13=1.2312       N12-O14=1.2306       O13-N12=1.2312       O14-N12=1.2306       
H15-C1=1.0774        O16-C3=1.3494        O16-C17=1.4178       C17-O16=1.4178       C17-H18=1.0918       C17-H19=1.0873       
C17-H20=1.0916       H18-C17=1.0918       H19-C17=1.0873       H20-C17=1.0916       
 C  H  Rav=1.0838 sigma=0.0066  Rmin=1.0767  Rmax=1.0918     6
 C  C  Rav=1.3959 sigma=0.0152  Rmin=1.3809  Rmax=1.4278     6
 N  H  Rav=1.0046 sigma=0.0006  Rmin=1.0040  Rmax=1.0052     2
 N  C  Rav=1.3799 sigma=0.0231  Rmin=1.3568  Rmax=1.4030     2
 O  C  Rav=1.3836 sigma=0.0342  Rmin=1.3494  Rmax=1.4178     2
 O  N  Rav=1.2309 sigma=0.0003  Rmin=1.2306  Rmax=1.2312     2
 
 selected bond angles (degree)
 --------------------
C6-C1-C2=119.19                H15-C1-C2=121.37               H15-C1-C6=119.44               C3-C2-C1=120.64                
H7-C2-C1=118.93                H7-C2-C3=120.43                C4-C3-C2=120.46                O16-C3-C2=124.94               
O16-C3-C4=114.59               C5-C4-C3=118.28                N9-C4-C3=119.18                N9-C4-C5=122.49                
C6-C5-C4=120.35                H8-C5-C4=120.69                H8-C5-C6=118.96                C5-C6-C1=121.08                
N12-C6-C1=119.54               N12-C6-C5=119.38               H10-N9-C4=117.42               H11-N9-C4=118.46               
H11-N9-H10=118.63              
 
 selected dihedral angles (degree)
 ---------------------------------
C3-C2-C1-C6=  0.16            C3-C2-C1-H15=180.03           H7-C2-C1-C6=180.21            H7-C2-C1-H15=  0.09           
C4-C3-C2-C1=  0.00            C4-C3-C2-H7=179.96            O16-C3-C2-C1=180.47           O16-C3-C2-H7=  0.41           
C5-C4-C3-C2=359.73            C5-C4-C3-O16=179.32           N9-C4-C3-C2=177.29            N9-C4-C3-O16=356.88           
C6-C5-C4-C3=  0.35            C6-C5-C4-N9=182.88            H8-C5-C4-C3=180.13            H8-C5-C4-N9=  2.66            
C5-C6-C1-C2=359.92            C5-C6-C1-H15=180.05           N12-C6-C1-C2=179.69           N12-C6-C1-H15=359.82          
C1-C6-C5-C4=359.82            C1-C6-C5-H8=180.03            N12-C6-C5-C4=180.05           N12-C6-C5-H8=  0.26           
H10-N9-C4-C3= 14.33           H10-N9-C4-C5=191.78           H11-N9-C4-C3=167.85           H11-N9-C4-C5=345.30           
           -------------------------------------------------
          |                Final Singlepoint                |
           -------------------------------------------------

          ...................................................
          :                      SETUP                      :
          :.................................................:
          :  # basis functions                  56          :
          :  # atomic orbitals                  56          :
          :  # shells                           32          :
          :  # electrons                        64          :
          :  max. iterations                   250          :
          :  Hamiltonian                  GFN2-xTB          :
          :  restarted?                      false          :
          :  GBSA solvation                   true          :
          :  PC potential                    false          :
          :  electronic temp.          300.0000000     K    :
          :  accuracy                    1.0000000          :
          :  -> integral cutoff          0.2500000E+02      :
          :  -> integral neglect         0.1000000E-07      :
          :  -> SCF convergence          0.1000000E-05 Eh   :
          :  -> wf. convergence          0.1000000E-03 e    :
          :  Broyden damping             0.4000000          :
          ...................................................

 iter      E             dE          RMSdq      gap      omega  full diag
   1    -37.4591620 -0.374592E+02  0.149E-04    1.32       0.0  T
   2    -37.4591620 -0.617746E-10  0.994E-05    1.32     224.9  T
   3    -37.4591620 -0.328768E-10  0.743E-05    1.32     301.1  T

   *** convergence criteria satisfied after 3 iterations ***

         #    Occupation            Energy/Eh            Energy/eV
      -------------------------------------------------------------
         1        2.0000           -0.7636575             -20.7802
       ...           ...                  ...                  ...
        26        2.0000           -0.4640522             -12.6275
        27        2.0000           -0.4603129             -12.5258
        28        2.0000           -0.4493662             -12.2279
        29        2.0000           -0.4416643             -12.0183
        30        2.0000           -0.4374983             -11.9049
        31        2.0000           -0.4119534             -11.2098
        32        2.0000           -0.3665776              -9.9751 (HOMO)
        33                         -0.3179793              -8.6527 (LUMO)
        34                         -0.2280191              -6.2047
        35                         -0.2127916              -5.7904
        36                         -0.0992735              -2.7014
        37                          0.0052519               0.1429
       ...                                ...                  ...
        56                          0.6510199              17.7152
      -------------------------------------------------------------
                  HL-Gap            0.0485983 Eh            1.3224 eV
             Fermi-level           -0.3422784 Eh           -9.3139 eV

 SCC (total)                   0 d,  0 h,  0 min,  0.009 sec
 SCC setup                      ...        0 min,  0.000 sec (  4.321%)
 Dispersion                     ...        0 min,  0.000 sec (  0.548%)
 classical contributions        ...        0 min,  0.000 sec (  0.189%)
 integral evaluation            ...        0 min,  0.002 sec ( 21.818%)
 iterations                     ...        0 min,  0.002 sec ( 24.162%)
 molecular gradient             ...        0 min,  0.004 sec ( 47.115%)
 printout                       ...        0 min,  0.000 sec (  1.639%)

         :::::::::::::::::::::::::::::::::::::::::::::::::::::
         ::                     SUMMARY                     ::
         :::::::::::::::::::::::::::::::::::::::::::::::::::::
         :: total energy             -37.031452891537 Eh    ::
         :: total w/o Gsasa/hb       -37.028086143736 Eh    ::
         :: gradient norm              0.000620348531 Eh/a0 ::
         :: HOMO-LUMO gap              1.322427194064 eV    ::
         ::.................................................::
         :: SCC energy               -37.459162039330 Eh    ::
         :: -> isotropic ES            0.099551078417 Eh    ::
         :: -> anisotropic ES          0.003796613556 Eh    ::
         :: -> anisotropic XC          0.005301056195 Eh    ::
         :: -> dispersion             -0.017024057941 Eh    ::
         :: -> Gsolv                  -0.026401456384 Eh    ::
         ::    -> Gelec               -0.023034708583 Eh    ::
         ::    -> Gsasa                0.002010630857 Eh    ::
         ::    -> Ghb                 -0.006458138356 Eh    ::
         ::    -> Gshift               0.001080759698 Eh    ::
         :: repulsion energy           0.427688851003 Eh    ::
         :: add. restraining           0.000000000000 Eh    ::
         :: total charge              -0.000000000000 e     ::
         :::::::::::::::::::::::::::::::::::::::::::::::::::::

           ------------------------------------------------- 
          |                Numerical Hessian                |
           ------------------------------------------------- 
step length          :   0.00500
SCC accuracy         :   0.30000
Hessian scale factor :   1.00000
frozen atoms in %    :   0.00000    0
RMS gradient         :   0.00062
estimated CPU  time      0.02 min
estimated wall time      0.02 min

writing file <hessian>.

 projected vibrational frequencies (cm⁻¹)
eigval :       -0.00    -0.00     0.00     0.00     0.00     0.00
eigval :       65.13    77.15   135.97   174.83   182.21   223.30
eigval :      230.42   310.25   326.60   339.83   369.68   412.70
eigval :      451.76   465.31   525.85   528.16   581.37   623.31
eigval :      674.87   721.71   762.20   793.33   818.98   838.09
eigval :      892.00   957.64  1019.86  1028.50  1106.59  1118.84
eigval :     1135.67  1154.94  1206.18  1239.09  1278.77  1314.57
eigval :     1385.03  1387.90  1410.67  1443.70  1449.65  1460.30
eigval :     1506.01  1518.44  1555.66  1572.97  2968.46  2977.15
eigval :     3043.29  3117.13  3118.39  3129.07  3485.48  3553.39
           -------------------------------------------------
          |                Property Printout                |
           -------------------------------------------------

    * Orbital Energies and Occupations

         #    Occupation            Energy/Eh            Energy/eV
      -------------------------------------------------------------
         1        2.0000           -0.7636574             -20.7802
       ...           ...                  ...                  ...
        20        2.0000           -0.5067986             -13.7907
        21        2.0000           -0.5007452             -13.6260
        22        2.0000           -0.4934956             -13.4287
        23        2.0000           -0.4819836             -13.1154
        24        2.0000           -0.4693351             -12.7713
        25        2.0000           -0.4646963             -12.6450
        26        2.0000           -0.4640526             -12.6275
        27        2.0000           -0.4603130             -12.5258
        28        2.0000           -0.4493664             -12.2279
        29        2.0000           -0.4416646             -12.0183
        30        2.0000           -0.4374985             -11.9049
        31        2.0000           -0.4119536             -11.2098
        32        2.0000           -0.3665776              -9.9751 (HOMO)
        33                         -0.3179794              -8.6527 (LUMO)
        34                         -0.2280192              -6.2047
        35                         -0.2127916              -5.7904
        36                         -0.0992736              -2.7014
        37                          0.0052516               0.1429
        38                          0.0118613               0.3228
        39                          0.0481028               1.3089
        40                          0.1133235               3.0837
        41                          0.1192028               3.2437
        42                          0.1537308               4.1832
        43                          0.1596612               4.3446
       ...                                ...                  ...
        56                          0.6510199              17.7152
      -------------------------------------------------------------
                  HL-Gap            0.0485982 Eh            1.3224 eV
             Fermi-level           -0.3422785 Eh           -9.3139 eV

     #   Z          covCN         q      C6AA      α(0)
     1   6 C        2.917    -0.038    28.948     8.823
     2   6 C        2.914    -0.068    29.685     8.934
     3   6 C        2.867     0.137    25.010     8.198
     4   6 C        2.894     0.076    26.302     8.409
     5   6 C        2.921    -0.070    29.744     8.944
     6   6 C        2.912    -0.001    28.061     8.686
     7   1 H        0.926     0.077     2.006     2.215
     8   1 H        0.926     0.075     2.033     2.230
     9   7 N        2.643    -0.283    27.301     7.760
    10   1 H        0.860     0.230     0.967     1.540
    11   1 H        0.860     0.223     0.997     1.564
    12   7 N        2.764     0.539    13.603     5.478
    13   8 O        0.930    -0.479    23.284     6.471
    14   8 O        0.930    -0.475    23.206     6.460
    15   1 H        0.926     0.074     2.042     2.234
    16   8 O        1.705    -0.253    18.196     5.759
    17   6 C        3.642     0.004    20.876     6.569
    18   1 H        0.924     0.069     2.100     2.266
    19   1 H        0.925     0.096     1.821     2.110
    20   1 H        0.924     0.069     2.096     2.264

 Mol. C6AA /au·bohr⁶  :       4817.465979
 Mol. C8AA /au·bohr⁸  :     112277.931297
 Mol. α(0) /au        :        106.915829


Wiberg/Mayer (AO) data.
largest (>0.10) Wiberg bond orders for each atom

 ---------------------------------------------------------------------------
     #   Z sym  total        # sym  WBO       # sym  WBO       # sym  WBO
 ---------------------------------------------------------------------------
     1   6 C    3.987 --     2 C    1.450     6 C    1.334    15 H    0.963
     2   6 C    3.985 --     1 C    1.450     3 C    1.378     7 H    0.960
     3   6 C    3.943 --     2 C    1.378     4 C    1.200    16 O    1.109
     4   6 C    3.983 --     5 C    1.394     9 N    1.238     3 C    1.200
     5   6 C    3.982 --     4 C    1.394     6 C    1.318     8 H    0.960
     6   6 C    3.944 --     1 C    1.334     5 C    1.318    12 N    1.043
     7   1 H    0.993 --     2 C    0.960
     8   1 H    0.994 --     5 C    0.960
     9   7 N    3.324 --     4 C    1.238    11 H    0.932    10 H    0.927
    10   1 H    0.947 --     9 N    0.927
    11   1 H    0.950 --     9 N    0.932
    12   7 N    3.885 --    14 O    1.387    13 O    1.385     6 C    1.043
    13   8 O    1.833 --    12 N    1.385    14 O    0.293
    14   8 O    1.838 --    12 N    1.387    13 O    0.293
    15   1 H    0.994 --     1 C    0.963
    16   8 O    2.252 --     3 C    1.109    17 C    0.961
    17   6 C    3.917 --    19 H    0.975    20 H    0.974    18 H    0.974
                            16 O    0.961
    18   1 H    0.993 --    17 C    0.974
    19   1 H    0.990 --    17 C    0.975
    20   1 H    0.993 --    17 C    0.974
 ---------------------------------------------------------------------------

Topologies differ in total number of bonds
Writing topology from bond orders to xtbtopo.mol

molecular dipole:
                 x           y           z       tot (Debye)
 q only:        4.689       0.487      -0.162
   full:        4.591       0.377      -0.278      11.730
molecular quadrupole (traceless):
                xx          xy          yy          xz          yz          zz
 q only:      -15.158      -3.126      13.006      -0.736      -1.144       2.152
  q+dip:      -15.837      -3.407      13.635      -1.323      -2.082       2.203
   full:      -16.837      -3.733      12.612      -1.306      -2.047       4.225

           -------------------------------------------------
          |                Geometry Summary                 |
           -------------------------------------------------

      molecular mass/u    :      168.1502985
   center of mass at/Å    :       -0.0806371       0.0056001      -0.0111623
  moments of inertia/u·Å² :        0.2377169E+03   0.8917713E+03   0.1126111E+04
rotational constants/cm⁻¹ :        0.7091475E-01   0.1890354E-01   0.1496978E-01

 * 20 selected distances

     #   Z          #   Z                                           value/Å
     1   6 C        2   6 C                                       1.3808841
     2   6 C        3   6 C                                       1.3895761
     3   6 C        4   6 C                                       1.4277568 (max)
     4   6 C        5   6 C                                       1.3857923
     1   6 C        6   6 C                                       1.3937906
     5   6 C        6   6 C                                       1.3977980
     2   6 C        7   1 H                                       1.0767420
     5   6 C        8   1 H                                       1.0779757
     4   6 C        9   7 N                                       1.3568384
     9   7 N       10   1 H                                       1.0052495
     9   7 N       11   1 H                                       1.0039712 (min)
     6   6 C       12   7 N                                       1.4030391
    12   7 N       13   8 O                                       1.2311610
    12   7 N       14   8 O                                       1.2305750
     1   6 C       15   1 H                                       1.0773671
     3   6 C       16   8 O                                       1.3494263
    16   8 O       17   6 C                                       1.4177730
    17   6 C       18   1 H                                       1.0918235
    17   6 C       19   1 H                                       1.0873300
    17   6 C       20   1 H                                       1.0915909

 * 6 distinct bonds (by element types)

   Z      Z             #   av. dist./Å        max./Å        min./Å
   1 H    6 C           6     1.0838049     1.0918235     1.0767420
   6 C    6 C           6     1.3959330     1.4277568     1.3808841
   1 H    7 N           2     1.0046103     1.0052495     1.0039712
   6 C    7 N           2     1.3799388     1.4030391     1.3568384
   6 C    8 O           2     1.3835997     1.4177730     1.3494263
   7 N    8 O           2     1.2308680     1.2311610     1.2305750

           -------------------------------------------------
          |               Frequency Printout                |
           -------------------------------------------------
 projected vibrational frequencies (cm⁻¹)
eigval :       -0.00    -0.00     0.00     0.00     0.00     0.00
eigval :       65.13    77.15   135.97   174.83   182.21   223.30
eigval :      230.42   310.25   326.60   339.83   369.68   412.70
eigval :      451.76   465.31   525.85   528.16   581.37   623.31
eigval :      674.87   721.71   762.20   793.33   818.98   838.09
eigval :      892.00   957.64  1019.86  1028.50  1106.59  1118.84
eigval :     1135.67  1154.94  1206.18  1239.09  1278.77  1314.57
eigval :     1385.03  1387.90  1410.67  1443.70  1449.65  1460.30
eigval :     1506.01  1518.44  1555.66  1572.97  2968.46  2977.15
eigval :     3043.29  3117.13  3118.39  3129.07  3485.48  3553.39
 reduced masses (amu)
   1: 11.51   2: 12.76   3: 13.26   4: 13.42   5: 12.42   6: 13.81   7: 13.89   8: 11.88
   9: 12.35  10: 12.39  11: 10.36  12:  3.00  13: 11.10  14: 12.43  15: 10.81  16:  3.52
  17: 12.55  18:  5.19  19:  6.45  20: 12.18  21: 12.05  22: 11.41  23: 11.10  24: 12.69
  25: 11.83  26: 12.72  27: 13.24  28: 12.12  29:  4.23  30:  4.04  31:  3.27  32:  9.46
  33:  5.78  34: 12.30  35:  3.71  36:  5.85  37:  6.05  38:  7.05  39:  8.15  40:  5.14
  41: 11.60  42: 10.51  43:  8.74  44:  4.55  45:  5.68  46:  8.89  47:  1.54  48:  1.71
  49: 12.11  50: 13.92  51: 11.79  52: 11.69  53:  1.95  54:  1.45  55:  1.72  56:  1.82
  57:  1.81  58:  1.87  59:  1.44  60:  2.19
 IR intensities (km·mol⁻¹)
   1:  2.19   2:  0.52   3:  3.02   4:  1.70   5:  3.28   6:  1.40   7:  0.28   8:  0.24
   9: 13.50  10:  3.62  11:  0.71  12:  0.26  13: 12.91  14:  1.88  15:  5.23  16:445.86
  17:  7.24  18: 10.74  19:  4.56  20: 29.52  21:  1.49  22: 12.11  23:  2.06  24: 93.63
  25:  1.05  26: 65.66  27:  7.93  28: 78.13  29: 13.71  30: 23.55  31:  0.15  32: 20.61
  33: 14.00  34: 31.13  35:  1.45  36:371.38  37: 35.02  38:513.11  39:******  40:154.23
  41:******  42: 55.72  43:  2.72  44:  4.75  45: 34.28  46: 49.96  47: 12.29  48: 14.80
  49:311.58  50:833.12  51: 33.14  52:382.30  53: 26.94  54: 31.74  55:  6.70  56: 10.28
  57:  5.41  58: 12.39  59:137.35  60: 69.73
 Raman intensities (amu)
   1:  0.00   2:  0.00   3:  0.00   4:  0.00   5:  0.00   6:  0.00   7:  0.00   8:  0.00
   9:  0.00  10:  0.00  11:  0.00  12:  0.00  13:  0.00  14:  0.00  15:  0.00  16:  0.00
  17:  0.00  18:  0.00  19:  0.00  20:  0.00  21:  0.00  22:  0.00  23:  0.00  24:  0.00
  25:  0.00  26:  0.00  27:  0.00  28:  0.00  29:  0.00  30:  0.00  31:  0.00  32:  0.00
  33:  0.00  34:  0.00  35:  0.00  36:  0.00  37:  0.00  38:  0.00  39:  0.00  40:  0.00
  41:  0.00  42:  0.00  43:  0.00  44:  0.00  45:  0.00  46:  0.00  47:  0.00  48:  0.00
  49:  0.00  50:  0.00  51:  0.00  52:  0.00  53:  0.00  54:  0.00  55:  0.00  56:  0.00
  57:  0.00  58:  0.00  59:  0.00  60:  0.00
 output can be read by thermo (or use thermo option).
 writing <g98.out> molden fake output.
 recommended (thermochemical) frequency scaling factor: 1.0
           -------------------------------------------------
          |             Thermodynamic Functions             |
           -------------------------------------------------

Molecule has no symmetry elements
It seems to be the C1 point group
c1  symmetry found (for desy threshold:  0.10E+00) used in thermo

          ...................................................
          :                      SETUP                      :
          :.................................................:
          :  # frequencies                          54      :
          :  # imaginary freq.                       0      :
          :  linear?                             false      :
          :  only rotor calc.                    false      :
          :  symmetry                               c1      :
          :  rotational number                       1      :
          :  scaling factor                  1.0000000      :
          :  rotor cutoff                   50.0000000 cm⁻¹ :
          :  imag. cutoff                  -20.0000000 cm⁻¹ :
          :.................................................:

    mode    ω/cm⁻¹     T·S(HO)/kcal·mol⁻¹    T·S(FR)/kcal·mol⁻¹   T·S(vib)
   ------------------------------------------------------------------------
       1     65.13    -1.28066 ( 74.22%)    -0.97813 ( 25.78%)    -1.20267
       2     77.15    -1.18130 ( 85.00%)    -0.92798 ( 15.00%)    -1.14331
       3    135.97    -0.85266 ( 98.20%)    -0.76014 (  1.80%)    -0.85100
       4    174.83    -0.71048 ( 99.34%)    -0.68569 (  0.66%)    -0.71031
       5    182.21    -0.68744 ( 99.44%)    -0.67344 (  0.56%)    -0.68736
       6    223.30    -0.57608 ( 99.75%)    -0.61320 (  0.25%)    -0.57618
       7    230.42    -0.55923 ( 99.78%)    -0.60390 (  0.22%)    -0.55933
   ------------------------------------------------------------------------

   temp. (K)  partition function   enthalpy   heat capacity  entropy
                                   cal/mol     cal/K/mol   cal/K/mol   J/K/mol
 298.15  VIB   985.                 5292.000     36.614     31.053
         ROT  0.118E+07              888.752      2.981     30.765
         INT  0.116E+10             6180.753     39.595     61.818
         TR   0.211E+28             1481.254      4.968     41.248
         TOT                        7662.0067    44.5631   103.0668   431.2314

       T/K    H(0)-H(T)+PV         H(T)/Eh          T*S/Eh         G(T)/Eh
   ------------------------------------------------------------------------
    298.15    0.122102E-01    0.158396E+00    0.489703E-01    0.109426E+00
   ------------------------------------------------------------------------

         :::::::::::::::::::::::::::::::::::::::::::::::::::::
         ::                  THERMODYNAMIC                  ::
         :::::::::::::::::::::::::::::::::::::::::::::::::::::
         :: total free energy         -36.922026879945 Eh   ::
         ::.................................................::
         :: total energy              -37.031452892411 Eh   ::
         :: zero point energy           0.146186176275 Eh   ::
         :: G(RRHO) w/o ZPVE           -0.036760163808 Eh   ::
         :: G(RRHO) contrib.            0.109426012467 Eh   ::
         :::::::::::::::::::::::::::::::::::::::::::::::::::::

optimized geometry written to: xtbopt.xyz


           -------------------------------------------------
          | TOTAL ENERGY              -37.031452892411 Eh   |
          | TOTAL ENTHALPY            -36.873056531260 Eh   |
          | TOTAL FREE ENERGY         -36.922026879945 Eh   |
          | GRADIENT NORM               0.000620459929 Eh/α |
          | HOMO-LUMO GAP               1.322423643062 eV   |
           -------------------------------------------------

------------------------------------------------------------------------
 * finished run on 2021/11/15 at 09:36:18.552     
------------------------------------------------------------------------
 total:
 * wall-time:     0 d,  0 h,  0 min,  1.477 sec
 *  cpu-time:     0 d,  0 h,  0 min,  1.406 sec
 * ratio c/w:     0.952 speedup
 SCF:
 * wall-time:     0 d,  0 h,  0 min,  0.014 sec
 *  cpu-time:     0 d,  0 h,  0 min,  0.016 sec
 * ratio c/w:     1.082 speedup
 ANC optimizer:
 * wall-time:     0 d,  0 h,  0 min,  0.112 sec
 *  cpu-time:     0 d,  0 h,  0 min,  0.109 sec
 * ratio c/w:     0.977 speedup
 analytical hessian:
 * wall-time:     0 d,  0 h,  0 min,  1.308 sec
 *  cpu-time:     0 d,  0 h,  0 min,  1.281 sec
 * ratio c/w:     0.979 speedup

