 Entering Gaussian System
 *********************************************
 Gaussian 98:
 frequency output generated by the xtb code
 *********************************************
                         Standard orientation:
 --------------------------------------------------------------------
  Center     Atomic     Atomic              Coordinates (Angstroms)
  Number     Number      Type              X           Y           Z
 --------------------------------------------------------------------
    1          6             0       -0.592739   -1.344655    0.012364
    2          6             0        0.787923   -1.322178    0.001976
    3          6             0        1.476422   -0.115342   -0.018922
    4          6             0        0.766096    1.123129   -0.029721
    5          6             0       -0.619176    1.085520   -0.024525
    6          6             0       -1.292384   -0.139271   -0.001765
    7          1             0        1.324098   -2.255899    0.009438
    8          1             0       -1.194363    1.997163   -0.034429
    9          7             0        1.463771    2.286310    0.005940
   10          1             0        2.450133    2.240420   -0.182502
   11          1             0        0.976489    3.142575   -0.187252
   12          7             0       -2.695343   -0.153709    0.002079
   13          8             0       -3.283215   -1.235281    0.021215
   14          8             0       -3.304030    0.915651   -0.014806
   15          1             0       -1.138356   -2.273494    0.029065
   16          8             0        2.820072    0.007691   -0.039370
   17          6             0        3.627246   -1.157789   -0.025012
   18          1             0        3.441312   -1.775066   -0.906191
   19          1             0        4.651859   -0.794160   -0.040139
   20          1             0        3.456309   -1.741058    0.881713
 --------------------------------------------------------------------
     1 basis functions        1 primitive gaussians
     1 alpha electrons        1 beta electrons
 
 Harmonic frequencies (cm**-1), IR intensities (km*mol⁻¹),
 Raman scattering activities (A**4/amu), Raman depolarization ratios,
 reduced masses (AMU), force constants (mDyne/A) and normal coordinates:
                      1                      2                      3
                        a                      a                      a 
 Frequencies --    65.1306                77.1497               135.9681
 Red. masses --    13.8943                11.8759                12.3485
 Frc consts  --     0.0000                 0.0000                 0.0000
 IR Inten    --     0.2827                 0.2360                13.5040
 Raman Activ --     0.0000                 0.0000                 0.0000
 Depolar     --     0.0000                 0.0000                 0.0000
 Atom AN      X      Y      Z        X      Y      Z        X      Y      Z
   1   6     0.00   0.00   0.13    -0.00  -0.01  -0.38    -0.00  -0.00  -0.19
   2   6     0.00   0.00   0.10    -0.00  -0.01  -0.40     0.00   0.00  -0.01
   3   6     0.00   0.00   0.08    -0.00  -0.00  -0.17     0.00   0.00   0.19
   4   6     0.00   0.00   0.15    -0.00  -0.00  -0.06     0.00   0.00  -0.07
   5   6     0.00   0.00   0.09    -0.00  -0.00  -0.05    -0.00  -0.00  -0.27
   6   6     0.00   0.00   0.07    -0.00  -0.00  -0.14    -0.00  -0.00  -0.21
   7   1     0.00   0.00   0.02    -0.00  -0.00  -0.17     0.00   0.00   0.02
   8   1     0.00   0.00   0.02     0.00   0.00   0.03    -0.00  -0.00  -0.12
   9   7     0.00   0.00   0.27    -0.00  -0.01   0.11    -0.01   0.00  -0.14
  10   1    -0.00   0.00   0.07     0.00   0.01   0.04     0.01  -0.01   0.03
  11   1     0.00   0.00   0.07     0.00   0.01   0.06     0.01  -0.00  -0.08
  12   7    -0.00  -0.00  -0.07    -0.00   0.00   0.09     0.00  -0.00   0.01
  13   8     0.00   0.01   0.39     0.00   0.01   0.57     0.00   0.00   0.18
  14   8    -0.00  -0.01  -0.70    -0.00  -0.00  -0.13    -0.00   0.00   0.16
  15   1     0.00   0.00   0.04    -0.00  -0.00  -0.15    -0.00  -0.00  -0.06
  16   8    -0.00   0.00  -0.05     0.00   0.00   0.02     0.01   0.01   0.69
  17   6    -0.00  -0.01  -0.37     0.01   0.01   0.37    -0.01  -0.01  -0.29
  18   1    -0.06   0.03  -0.11     0.10  -0.01   0.09    -0.06   0.17  -0.19
  19   1    -0.00  -0.00  -0.16     0.00   0.00   0.22    -0.00  -0.00  -0.07
  20   1     0.06  -0.03  -0.11    -0.10   0.01   0.09     0.05  -0.17  -0.19
                      4                      5                      6
                        a                      a                      a 
 Frequencies --   174.8259               182.2070               223.2964
 Red. masses --    12.3870                10.3630                 2.9987
 Frc consts  --     0.0000                 0.0000                 0.0000
 IR Inten    --     3.6231                 0.7068                 0.2614
 Raman Activ --     0.0000                 0.0000                 0.0000
 Depolar     --     0.0000                 0.0000                 0.0000
 Atom AN      X      Y      Z        X      Y      Z        X      Y      Z
   1   6    -0.00   0.21  -0.00     0.00   0.00   0.10     0.01  -0.00   0.26
   2   6    -0.03   0.16  -0.01     0.00   0.00   0.17     0.01   0.00   0.05
   3   6     0.01   0.13  -0.00     0.00   0.00  -0.05     0.00   0.00  -0.09
   4   6     0.06   0.17  -0.00    -0.00  -0.00  -0.11    -0.00   0.00  -0.06
   5   6     0.03   0.21   0.00     0.00  -0.01  -0.53    -0.00  -0.01  -0.20
   6   6     0.02   0.21  -0.00    -0.00  -0.00  -0.32     0.00  -0.01   0.03
   7   1    -0.02   0.04  -0.00     0.00   0.00   0.13     0.00   0.00  -0.01
   8   1     0.02   0.07   0.00    -0.00  -0.00  -0.22    -0.00  -0.00  -0.10
   9   7     0.14   0.14  -0.00    -0.01   0.00   0.49    -0.02   0.02   0.16
  10   1     0.04   0.02   0.00     0.01   0.01   0.17    -0.01   0.01   0.04
  11   1     0.06   0.05  -0.00     0.01   0.00   0.09    -0.01   0.00   0.03
  12   7     0.03  -0.07   0.00     0.00  -0.00  -0.05     0.00  -0.00   0.01
  13   8     0.37  -0.27   0.00     0.00   0.00   0.11    -0.00   0.00  -0.04
  14   8    -0.30  -0.27   0.00    -0.00   0.00   0.21     0.02   0.01   0.01
  15   1    -0.01   0.07  -0.00     0.00   0.00   0.12     0.00  -0.00   0.15
  16   8     0.04  -0.13  -0.00     0.00  -0.01  -0.19     0.00  -0.01  -0.11
  17   6    -0.32  -0.36   0.01    -0.00  -0.00   0.02    -0.01  -0.01  -0.04
  18   1    -0.14  -0.09   0.00    -0.11  -0.12   0.12     0.35   0.25  -0.27
  19   1    -0.06  -0.20   0.01    -0.00  -0.01  -0.17     0.00   0.00   0.52
  20   1    -0.15  -0.09   0.00     0.11   0.13   0.11    -0.37  -0.27  -0.25
                      7                      8                      9
                        a                      a                      a 
 Frequencies --   230.4210               310.2535               326.6030
 Red. masses --    11.1003                12.4271                10.8092
 Frc consts  --     0.0000                 0.0000                 0.0000
 IR Inten    --    12.9124                 1.8837                 5.2329
 Raman Activ --     0.0000                 0.0000                 0.0000
 Depolar     --     0.0000                 0.0000                 0.0000
 Atom AN      X      Y      Z        X      Y      Z        X      Y      Z
   1   6    -0.15   0.13   0.02     0.02  -0.14   0.00    -0.00  -0.01  -0.36
   2   6    -0.14  -0.08   0.01    -0.01  -0.09   0.00     0.00   0.00   0.46
   3   6    -0.07  -0.13  -0.00    -0.24   0.02  -0.00     0.00   0.00   0.31
   4   6     0.03  -0.07  -0.00    -0.11   0.06  -0.00     0.00   0.00   0.21
   5   6     0.01   0.15  -0.02    -0.06   0.04  -0.00     0.00   0.00   0.17
   6   6    -0.08   0.18  -0.01     0.14  -0.08  -0.00    -0.00  -0.01  -0.38
   7   1    -0.06  -0.04   0.00     0.02  -0.01   0.00     0.00   0.00   0.19
   8   1     0.03   0.06  -0.01    -0.06  -0.02  -0.00     0.00   0.00   0.08
   9   7     0.44  -0.33   0.00     0.25  -0.17  -0.01     0.00   0.02  -0.08
  10   1     0.12  -0.20   0.02     0.07  -0.15   0.03    -0.00  -0.02  -0.03
  11   1     0.21  -0.03   0.02     0.16   0.01   0.01     0.01  -0.02  -0.16
  12   7    -0.10   0.02  -0.00     0.23  -0.05  -0.00    -0.00  -0.00  -0.17
  13   8     0.11  -0.10  -0.00     0.18  -0.01   0.00    -0.00   0.00   0.15
  14   8    -0.35  -0.11   0.00     0.40   0.03  -0.00    -0.00   0.00   0.11
  15   1    -0.07   0.05   0.01    -0.01  -0.03   0.00    -0.00  -0.00  -0.22
  16   8    -0.11   0.05  -0.00    -0.35   0.24  -0.00    -0.01  -0.01  -0.33
  17   6     0.27   0.30  -0.01    -0.45   0.16   0.00     0.00   0.00  -0.02
  18   1     0.15   0.08  -0.01    -0.15   0.05   0.00     0.11   0.03  -0.05
  19   1     0.04   0.19   0.02    -0.11   0.00   0.00     0.00   0.01   0.14
  20   1     0.12   0.06  -0.01    -0.15   0.05   0.00    -0.11  -0.03  -0.05
                     10                     11                     12
                        a                      a                      a 
 Frequencies --   339.8258               369.6801               412.6974
 Red. masses --     3.5230                12.5495                 5.1923
 Frc consts  --     0.0000                 0.0000                 0.0000
 IR Inten    --   445.8605                 7.2424                10.7362
 Raman Activ --     0.0000                 0.0000                 0.0000
 Depolar     --     0.0000                 0.0000                 0.0000
 Atom AN      X      Y      Z        X      Y      Z        X      Y      Z
   1   6    -0.02  -0.01  -0.01    -0.17  -0.01  -0.00    -0.01  -0.01   0.05
   2   6    -0.03  -0.04  -0.08    -0.20  -0.18   0.02    -0.01  -0.00  -0.23
   3   6    -0.02  -0.02   0.04    -0.17  -0.18   0.00    -0.02   0.01   0.30
   4   6    -0.00  -0.02  -0.03    -0.03  -0.06   0.00    -0.01   0.02   0.32
   5   6     0.02  -0.00  -0.04     0.01   0.10   0.00    -0.02   0.00  -0.18
   6   6     0.01   0.00   0.08     0.09   0.13  -0.01     0.01   0.00   0.16
   7   1    -0.01  -0.01  -0.06    -0.06  -0.05   0.01    -0.00  -0.00  -0.24
   8   1     0.01   0.00  -0.04     0.01   0.03   0.00    -0.01  -0.00  -0.21
   9   7     0.06   0.13   0.38    -0.35   0.10  -0.03    -0.09   0.05  -0.12
  10   1    -0.10  -0.06  -0.59    -0.09   0.16   0.01     0.08  -0.07   0.54
  11   1    -0.01  -0.13  -0.64    -0.20  -0.01   0.09     0.09  -0.02  -0.47
  12   7     0.01   0.01   0.04     0.23   0.14  -0.01     0.01   0.00   0.06
  13   8     0.05  -0.00  -0.02     0.55  -0.01   0.00     0.02  -0.00  -0.03
  14   8     0.01  -0.00  -0.01     0.11   0.07   0.00     0.02   0.00  -0.01
  15   1    -0.01   0.00  -0.01    -0.11   0.03  -0.00    -0.00  -0.00  -0.02
  16   8    -0.07  -0.02   0.03    -0.22  -0.23   0.01    -0.00  -0.04  -0.16
  17   6     0.01   0.02   0.00     0.16   0.04  -0.00     0.03  -0.01   0.00
  18   1    -0.00  -0.00   0.01     0.11  -0.01  -0.00     0.03  -0.04   0.02
  19   1    -0.01   0.03  -0.02     0.01   0.12  -0.00     0.01   0.01  -0.01
  20   1     0.02   0.01   0.01     0.11  -0.01  -0.00     0.00   0.03   0.02
                     13                     14                     15
                        a                      a                      a 
 Frequencies --   451.7583               465.3071               525.8502
 Red. masses --     6.4520                12.1756                12.0531
 Frc consts  --     0.0000                 0.0000                 0.0000
 IR Inten    --     4.5574                29.5196                 1.4945
 Raman Activ --     0.0000                 0.0000                 0.0000
 Depolar     --     0.0000                 0.0000                 0.0000
 Atom AN      X      Y      Z        X      Y      Z        X      Y      Z
   1   6     0.02   0.02   0.02    -0.14  -0.12   0.01     0.09   0.29  -0.24
   2   6     0.02  -0.02  -0.17    -0.18   0.15  -0.02     0.07   0.08   0.15
   3   6     0.04  -0.02   0.39    -0.19   0.15   0.03     0.02   0.04   0.11
   4   6     0.02  -0.04   0.39     0.05   0.36   0.04    -0.26  -0.07  -0.19
   5   6     0.02  -0.01  -0.28     0.01   0.03  -0.03    -0.28   0.27  -0.14
   6   6    -0.00   0.01   0.06     0.01  -0.08  -0.00    -0.05   0.17   0.29
   7   1    -0.01  -0.01  -0.18     0.02   0.08  -0.02    -0.01   0.01   0.04
   8   1     0.01  -0.00  -0.27    -0.06  -0.03  -0.03    -0.05   0.09  -0.05
   9   7     0.05  -0.07  -0.13     0.27   0.33  -0.03    -0.12  -0.24   0.08
  10   1    -0.07   0.06  -0.46     0.06   0.04  -0.07    -0.04  -0.12  -0.02
  11   1    -0.12   0.01   0.42     0.11   0.14   0.11     0.02  -0.02   0.06
  12   7    -0.01   0.02   0.00     0.02  -0.20  -0.00     0.03  -0.16   0.19
  13   8     0.00   0.01   0.00    -0.25  -0.10   0.01    -0.10  -0.11  -0.07
  14   8    -0.05   0.00   0.01     0.25  -0.10   0.00     0.34  -0.01  -0.07
  15   1     0.00   0.00  -0.03    -0.03  -0.04   0.00     0.00   0.09  -0.17
  16   8     0.01   0.07  -0.14    -0.19  -0.34  -0.00     0.07  -0.08  -0.05
  17   6    -0.06   0.02   0.00     0.23  -0.07  -0.00     0.12  -0.10  -0.01
  18   1    -0.02  -0.02   0.02     0.15  -0.05  -0.00     0.05  -0.03  -0.01
  19   1    -0.01  -0.02   0.00     0.02   0.13  -0.00     0.03  -0.01   0.01
  20   1    -0.04   0.04   0.02     0.15  -0.04   0.00     0.04  -0.03  -0.00
                     16                     17                     18
                        a                      a                      a 
 Frequencies --   528.1598               581.3691               623.3051
 Red. masses --    11.4101                11.0954                12.6894
 Frc consts  --     0.0000                 0.0000                 0.0000
 IR Inten    --    12.1060                 2.0642                93.6313
 Raman Activ --     0.0000                 0.0000                 0.0000
 Depolar     --     0.0000                 0.0000                 0.0000
 Atom AN      X      Y      Z        X      Y      Z        X      Y      Z
   1   6     0.06   0.21   0.34    -0.12   0.22  -0.00     0.41   0.03  -0.00
   2   6     0.05   0.04  -0.22    -0.11  -0.20   0.01     0.40  -0.34  -0.00
   3   6     0.01   0.02  -0.14     0.06  -0.23  -0.01    -0.14  -0.09   0.00
   4   6    -0.18  -0.05   0.30     0.31  -0.11  -0.01    -0.05   0.08  -0.00
   5   6    -0.19   0.19   0.18     0.30   0.15   0.00    -0.04   0.24  -0.00
   6   6    -0.04   0.10  -0.43     0.04   0.23  -0.01     0.23   0.05  -0.00
   7   1    -0.01   0.00  -0.06    -0.11  -0.10   0.00     0.15  -0.07  -0.00
   8   1    -0.03   0.07   0.07     0.17   0.10   0.01    -0.04   0.05   0.00
   9   7    -0.08  -0.15  -0.08    -0.03   0.14  -0.01    -0.01   0.09  -0.01
  10   1    -0.04  -0.11  -0.09     0.01   0.22   0.07     0.00   0.05   0.02
  11   1     0.00  -0.04  -0.08    -0.15  -0.05  -0.04    -0.02   0.02   0.01
  12   7     0.02  -0.11  -0.27    -0.00  -0.25   0.00     0.08   0.04   0.00
  13   8    -0.06  -0.07   0.11    -0.35  -0.12   0.00    -0.22   0.21  -0.00
  14   8     0.23  -0.00   0.10     0.22  -0.18   0.00    -0.29  -0.14   0.00
  15   1     0.01   0.07   0.24    -0.12   0.11  -0.00     0.07   0.04  -0.00
  16   8     0.05  -0.05   0.07    -0.03   0.13  -0.00    -0.29  -0.20   0.01
  17   6     0.08  -0.07   0.01    -0.15   0.15  -0.00    -0.03  -0.01   0.00
  18   1     0.02  -0.02   0.01    -0.08   0.05   0.00     0.05  -0.02  -0.00
  19   1     0.02  -0.01  -0.01    -0.02  -0.01   0.00    -0.04   0.10  -0.00
  20   1     0.04  -0.02   0.01    -0.08   0.05  -0.00     0.05  -0.02   0.00
                     19                     20                     21
                        a                      a                      a 
 Frequencies --   674.8689               721.7090               762.1978
 Red. masses --    11.8289                12.7249                13.2399
 Frc consts  --     0.0000                 0.0000                 0.0000
 IR Inten    --     1.0524                65.6620                 7.9257
 Raman Activ --     0.0000                 0.0000                 0.0000
 Depolar     --     0.0000                 0.0000                 0.0000
 Atom AN      X      Y      Z        X      Y      Z        X      Y      Z
   1   6    -0.00  -0.00  -0.22    -0.00  -0.00   0.00    -0.25  -0.25   0.01
   2   6     0.00  -0.01   0.24     0.00   0.00   0.11    -0.20  -0.07   0.00
   3   6    -0.01  -0.01  -0.61    -0.00  -0.00  -0.17    -0.01  -0.01   0.01
   4   6    -0.00   0.01   0.60    -0.00   0.00  -0.01    -0.11   0.06  -0.00
   5   6    -0.01   0.00  -0.23    -0.00   0.00  -0.02    -0.14   0.21  -0.00
   6   6     0.00   0.00   0.11     0.00   0.01   0.46     0.24   0.01  -0.00
   7   1     0.00  -0.00   0.14    -0.00  -0.00  -0.12    -0.06  -0.02   0.00
   8   1    -0.00  -0.00  -0.06    -0.00  -0.00  -0.13    -0.11   0.01  -0.00
   9   7     0.00   0.02  -0.09    -0.00  -0.00   0.02    -0.04  -0.01   0.01
  10   1    -0.00  -0.02  -0.04     0.00   0.00   0.01    -0.02  -0.06  -0.03
  11   1    -0.01  -0.01  -0.07     0.00   0.00   0.00     0.04   0.02  -0.00
  12   7     0.00   0.00   0.19     0.00  -0.01  -0.76     0.35  -0.01   0.00
  13   8     0.00   0.00  -0.06    -0.00   0.01   0.22    -0.13   0.38  -0.01
  14   8    -0.00  -0.00  -0.06    -0.00   0.00   0.22    -0.10  -0.40   0.01
  15   1    -0.00   0.00   0.03    -0.00  -0.00  -0.21    -0.15  -0.02   0.00
  16   8     0.01   0.00   0.10     0.00   0.00   0.04     0.31   0.20  -0.01
  17   6     0.00  -0.00   0.01     0.00  -0.00   0.00     0.12  -0.07   0.00
  18   1    -0.01   0.01  -0.00    -0.01  -0.00   0.00    -0.05   0.00   0.00
  19   1     0.00  -0.00  -0.00     0.00  -0.00  -0.01     0.08  -0.15   0.00
  20   1     0.01  -0.01  -0.00     0.01   0.00   0.00    -0.05   0.00  -0.00
                     22                     23                     24
                        a                      a                      a 
 Frequencies --   793.3292               818.9773               838.0878
 Red. masses --    12.1180                 4.2327                 4.0351
 Frc consts  --     0.0000                 0.0000                 0.0000
 IR Inten    --    78.1260                13.7114                23.5476
 Raman Activ --     0.0000                 0.0000                 0.0000
 Depolar     --     0.0000                 0.0000                 0.0000
 Atom AN      X      Y      Z        X      Y      Z        X      Y      Z
   1   6     0.03   0.13  -0.00    -0.00  -0.00  -0.32     0.00   0.01  -0.04
   2   6    -0.08   0.51  -0.00    -0.00  -0.00  -0.29     0.00   0.00   0.10
   3   6     0.03   0.17  -0.01     0.00   0.00   0.14    -0.00  -0.00  -0.14
   4   6     0.08  -0.19   0.01     0.00  -0.00   0.01     0.00  -0.00  -0.09
   5   6     0.22  -0.17  -0.00     0.00  -0.00   0.08     0.00   0.00   0.45
   6   6     0.09   0.02  -0.00     0.00   0.00   0.21    -0.00   0.00  -0.13
   7   1     0.03   0.18  -0.01     0.00   0.01   0.61    -0.00  -0.00  -0.10
   8   1     0.12  -0.02   0.01     0.00  -0.00  -0.15    -0.01  -0.02  -0.85
   9   7    -0.13  -0.30   0.00    -0.00  -0.00  -0.00    -0.00  -0.00   0.03
  10   1    -0.03  -0.02   0.01     0.00  -0.00   0.01    -0.00   0.01   0.01
  11   1    -0.10  -0.12  -0.02     0.00  -0.00  -0.01     0.00   0.00   0.01
  12   7     0.26  -0.01   0.00     0.00  -0.00  -0.16     0.00   0.00   0.11
  13   8    -0.09   0.26  -0.00    -0.00   0.00   0.04    -0.00   0.00  -0.02
  14   8    -0.05  -0.29   0.00    -0.00  -0.00   0.03     0.00  -0.00  -0.03
  15   1     0.09  -0.00  -0.00     0.00   0.01   0.56     0.00   0.00  -0.03
  16   8    -0.25  -0.18   0.01    -0.00  -0.00  -0.04    -0.00  -0.00   0.03
  17   6    -0.10   0.06  -0.00    -0.00   0.00  -0.00    -0.00   0.00   0.00
  18   1     0.05  -0.01  -0.00     0.01   0.00  -0.01     0.00  -0.00   0.00
  19   1    -0.07   0.15  -0.00    -0.00   0.00   0.03    -0.00   0.00  -0.00
  20   1     0.06  -0.01   0.00    -0.01  -0.00  -0.00    -0.00   0.00   0.00
                     25                     26                     27
                        a                      a                      a 
 Frequencies --   892.0005               957.6416              1019.8576
 Red. masses --     3.2686                 9.4563                 5.7831
 Frc consts  --     0.0000                 0.0000                 0.0000
 IR Inten    --     0.1476                20.6052                14.0006
 Raman Activ --     0.0000                 0.0000                 0.0000
 Depolar     --     0.0000                 0.0000                 0.0000
 Atom AN      X      Y      Z        X      Y      Z        X      Y      Z
   1   6     0.00   0.01   0.32    -0.05  -0.45   0.01     0.05   0.17  -0.00
   2   6    -0.00  -0.00  -0.30    -0.01   0.16  -0.00    -0.02   0.01  -0.00
   3   6     0.00  -0.00  -0.04    -0.06   0.12  -0.00    -0.03  -0.03  -0.00
   4   6     0.00   0.00   0.07     0.09  -0.07   0.00    -0.01  -0.02  -0.00
   5   6     0.00  -0.00  -0.01     0.01   0.44  -0.00    -0.29  -0.07   0.00
   6   6    -0.00  -0.00  -0.02     0.24   0.05  -0.00    -0.20  -0.10   0.00
   7   1     0.00   0.01   0.61     0.21   0.16   0.00    -0.10  -0.05   0.01
   8   1    -0.00  -0.00  -0.10     0.05   0.15  -0.01    -0.27  -0.14   0.01
   9   7    -0.00   0.00  -0.00     0.04  -0.24   0.01     0.38  -0.04  -0.00
  10   1     0.00  -0.01   0.00     0.03   0.22   0.03     0.13   0.52   0.09
  11   1     0.00  -0.00  -0.01    -0.25  -0.22  -0.06    -0.35  -0.27  -0.07
  12   7     0.00   0.00   0.04    -0.16  -0.01   0.00     0.07   0.00  -0.00
  13   8    -0.00   0.00  -0.01    -0.07  -0.23   0.00     0.07   0.15  -0.00
  14   8     0.00  -0.00  -0.01    -0.05   0.22  -0.00     0.04  -0.11   0.00
  15   1    -0.00  -0.01  -0.65     0.02  -0.14   0.00     0.10  -0.00   0.00
  16   8    -0.00  -0.00  -0.01     0.02   0.03  -0.00    -0.05   0.07  -0.00
  17   6    -0.00   0.00   0.00    -0.00  -0.04   0.00     0.07  -0.07   0.00
  18   1    -0.00   0.01  -0.01     0.02  -0.01  -0.00    -0.00  -0.01   0.00
  19   1    -0.00   0.00   0.02    -0.01   0.01  -0.00     0.02  -0.03  -0.00
  20   1     0.00  -0.01  -0.01     0.02  -0.01   0.00    -0.00  -0.01  -0.00
                     28                     29                     30
                        a                      a                      a 
 Frequencies --  1028.4972              1106.5886              1118.8443
 Red. masses --    12.3004                 3.7141                 5.8496
 Frc consts  --     0.0000                 0.0000                 0.0000
 IR Inten    --    31.1276                 1.4529               371.3778
 Raman Activ --     0.0000                 0.0000                 0.0000
 Depolar     --     0.0000                 0.0000                 0.0000
 Atom AN      X      Y      Z        X      Y      Z        X      Y      Z
   1   6     0.05   0.10  -0.00    -0.00  -0.00   0.00    -0.03   0.16  -0.00
   2   6     0.01  -0.05   0.00    -0.00  -0.00  -0.00     0.03  -0.07   0.00
   3   6    -0.33   0.10   0.00     0.00  -0.00   0.00    -0.16   0.16   0.00
   4   6     0.02   0.03  -0.00     0.00  -0.00  -0.00     0.01   0.11  -0.00
   5   6     0.22  -0.15   0.00    -0.00   0.00  -0.00     0.07  -0.23   0.00
   6   6     0.04   0.05  -0.00    -0.00  -0.00   0.00     0.35   0.05  -0.00
   7   1     0.08   0.04  -0.00    -0.00  -0.00   0.02     0.11   0.04  -0.00
   8   1     0.13  -0.00  -0.00    -0.00   0.00   0.01    -0.33  -0.28   0.01
   9   7    -0.05  -0.09   0.00     0.00   0.00  -0.00    -0.01  -0.14   0.01
  10   1    -0.01  -0.04   0.00     0.00   0.00   0.00    -0.00  -0.00   0.01
  11   1    -0.03  -0.03   0.00    -0.00  -0.00  -0.00    -0.10  -0.10  -0.02
  12   7    -0.02  -0.00   0.00     0.00  -0.00   0.00    -0.10  -0.00   0.00
  13   8    -0.02  -0.03   0.00     0.00   0.00   0.00    -0.04  -0.10   0.00
  14   8    -0.00   0.01  -0.00     0.00  -0.00  -0.00    -0.03   0.09  -0.00
  15   1    -0.04   0.06  -0.00     0.00  -0.00  -0.01    -0.48   0.32  -0.00
  16   8    -0.31   0.49  -0.01     0.00   0.01   0.22     0.23  -0.05  -0.00
  17   6     0.39  -0.44   0.00    -0.01  -0.01  -0.42    -0.13   0.03  -0.00
  18   1    -0.01  -0.05  -0.01     0.32  -0.48   0.17     0.09  -0.02  -0.01
  19   1     0.13  -0.20   0.00    -0.00   0.01   0.23    -0.07   0.12  -0.00
  20   1    -0.01  -0.04   0.01    -0.31   0.49   0.16     0.09  -0.02   0.01
                     31                     32                     33
                        a                      a                      a 
 Frequencies --  1135.6652              1154.9375              1206.1793
 Red. masses --     6.0485                 7.0461                 8.1489
 Frc consts  --     0.0000                 0.0000                 0.0000
 IR Inten    --    35.0177               513.1090              1252.4523
 Raman Activ --     0.0000                 0.0000                 0.0000
 Depolar     --     0.0000                 0.0000                 0.0000
 Atom AN      X      Y      Z        X      Y      Z        X      Y      Z
   1   6     0.10   0.09  -0.00     0.03   0.01  -0.00    -0.05  -0.12   0.00
   2   6    -0.10   0.15  -0.00    -0.12   0.10  -0.00     0.14   0.12  -0.00
   3   6    -0.02  -0.10   0.00     0.30  -0.12  -0.00     0.49  -0.02  -0.01
   4   6     0.01   0.06  -0.00     0.00  -0.04   0.00    -0.09  -0.15   0.01
   5   6     0.07   0.03  -0.00     0.03   0.10  -0.00    -0.15  -0.00   0.00
   6   6     0.30  -0.02  -0.00     0.26  -0.03  -0.00    -0.07  -0.09   0.00
   7   1    -0.19  -0.05   0.00    -0.40  -0.19   0.01     0.12   0.07  -0.00
   8   1    -0.27  -0.17   0.01    -0.28  -0.16   0.01     0.06   0.06  -0.00
   9   7    -0.05  -0.05   0.00    -0.04   0.04  -0.00     0.08   0.10  -0.01
  10   1    -0.02  -0.06  -0.01    -0.01  -0.05  -0.01     0.03   0.10   0.01
  11   1    -0.02  -0.01  -0.00     0.06   0.05   0.01     0.07   0.06  -0.00
  12   7     0.02  -0.01  -0.00     0.11  -0.00  -0.00     0.21   0.02  -0.00
  13   8    -0.08  -0.13   0.00    -0.10  -0.17   0.00    -0.05  -0.09   0.00
  14   8    -0.08   0.14  -0.00    -0.11   0.17  -0.00    -0.08   0.10  -0.00
  15   1     0.15  -0.04  -0.00     0.16  -0.08   0.00    -0.52   0.26   0.00
  16   8    -0.14  -0.23   0.01    -0.17   0.26  -0.00    -0.36  -0.00   0.00
  17   6     0.24   0.27  -0.01    -0.06  -0.28   0.01     0.11  -0.03  -0.00
  18   1    -0.28   0.09   0.04     0.15  -0.07  -0.02    -0.10   0.03   0.00
  19   1     0.23  -0.42   0.01    -0.15   0.31  -0.01     0.05  -0.08   0.00
  20   1    -0.29   0.10  -0.04     0.16  -0.08   0.02    -0.10   0.03  -0.00
                     34                     35                     36
                        a                      a                      a 
 Frequencies --  1239.0913              1278.7681              1314.5703
 Red. masses --     5.1447                11.5964                10.5054
 Frc consts  --     0.0000                 0.0000                 0.0000
 IR Inten    --   154.2283              2675.3538                55.7236
 Raman Activ --     0.0000                 0.0000                 0.0000
 Depolar     --     0.0000                 0.0000                 0.0000
 Atom AN      X      Y      Z        X      Y      Z        X      Y      Z
   1   6    -0.15   0.06   0.00     0.10   0.02  -0.00     0.20   0.15  -0.00
   2   6     0.01   0.07  -0.00    -0.03   0.22  -0.00    -0.35   0.01   0.00
   3   6     0.08  -0.34   0.00    -0.07  -0.12   0.00    -0.21  -0.12   0.00
   4   6     0.16  -0.20   0.00    -0.06  -0.27   0.01    -0.06  -0.28   0.01
   5   6     0.01   0.11  -0.00    -0.17  -0.01   0.00    -0.24  -0.18   0.00
   6   6    -0.04   0.13  -0.00     0.43  -0.17   0.00     0.18   0.02  -0.00
   7   1     0.51   0.31  -0.01    -0.19  -0.04   0.00     0.21   0.18  -0.00
   8   1    -0.42  -0.23   0.01     0.17   0.13  -0.00     0.17   0.09  -0.00
   9   7    -0.05   0.13  -0.00     0.07   0.15  -0.01     0.09   0.15   0.00
  10   1    -0.02  -0.07  -0.02     0.02   0.11  -0.00     0.03   0.19  -0.02
  11   1     0.12   0.11   0.02     0.12   0.10   0.01     0.17   0.12  -0.01
  12   7    -0.17  -0.02   0.00    -0.55  -0.00   0.00     0.34  -0.01  -0.00
  13   8     0.06   0.10  -0.00     0.17   0.22  -0.00    -0.14  -0.20   0.00
  14   8     0.09  -0.11   0.00     0.13  -0.18   0.00    -0.16   0.22  -0.00
  15   1     0.13  -0.09   0.00    -0.11   0.09  -0.00     0.11   0.02  -0.00
  16   8    -0.10   0.10  -0.00    -0.04   0.03   0.00     0.17   0.04  -0.00
  17   6    -0.01  -0.06   0.00     0.02  -0.02  -0.00    -0.08   0.03  -0.00
  18   1     0.02   0.01  -0.02    -0.00  -0.02   0.01     0.08  -0.01  -0.01
  19   1     0.00  -0.03   0.00     0.00   0.01   0.00     0.01  -0.07   0.00
  20   1     0.02   0.01   0.02    -0.00  -0.01  -0.01     0.08  -0.01   0.01
                     37                     38                     39
                        a                      a                      a 
 Frequencies --  1385.0293              1387.8988              1410.6728
 Red. masses --     8.7385                 4.5542                 5.6795
 Frc consts  --     0.0000                 0.0000                 0.0000
 IR Inten    --     2.7222                 4.7525                34.2775
 Raman Activ --     0.0000                 0.0000                 0.0000
 Depolar     --     0.0000                 0.0000                 0.0000
 Atom AN      X      Y      Z        X      Y      Z        X      Y      Z
   1   6    -0.25   0.20  -0.00    -0.15   0.16  -0.00    -0.27   0.01   0.00
   2   6     0.16   0.13  -0.00     0.02   0.03  -0.00     0.17  -0.13  -0.00
   3   6     0.07  -0.41   0.00     0.01  -0.23   0.00     0.09   0.19  -0.01
   4   6    -0.31   0.33  -0.01    -0.22   0.18  -0.00    -0.29  -0.02   0.03
   5   6     0.16   0.02   0.00     0.05  -0.05   0.00     0.17  -0.12  -0.00
   6   6     0.11  -0.30   0.00     0.14  -0.13   0.00     0.11   0.22  -0.01
   7   1     0.08   0.06  -0.00     0.14   0.08  -0.00     0.01  -0.06   0.00
   8   1     0.16   0.08  -0.00     0.13   0.06  -0.00    -0.02  -0.08   0.00
   9   7     0.04  -0.04   0.00     0.05  -0.01  -0.00    -0.06  -0.20   0.01
  10   1     0.01   0.00   0.02     0.01   0.02   0.01     0.00   0.56  -0.06
  11   1    -0.13  -0.09  -0.01    -0.08  -0.05  -0.00     0.42   0.19  -0.08
  12   7     0.03   0.02  -0.00     0.02   0.01  -0.00    -0.05   0.03  -0.00
  13   8    -0.01  -0.03   0.00    -0.02  -0.03   0.00    -0.02  -0.03   0.00
  14   8    -0.04   0.04  -0.00    -0.03   0.03  -0.00     0.03  -0.04   0.00
  15   1     0.04  -0.01   0.00     0.08  -0.03  -0.00     0.14  -0.13   0.00
  16   8    -0.00   0.07  -0.00     0.11  -0.05  -0.00    -0.03  -0.05   0.00
  17   6    -0.15   0.11  -0.00     0.15  -0.22   0.00     0.02   0.03  -0.00
  18   1     0.23  -0.16   0.06    -0.31   0.29  -0.15    -0.02  -0.04   0.03
  19   1     0.07  -0.26   0.00    -0.15   0.44  -0.01     0.01  -0.01   0.00
  20   1     0.23  -0.16  -0.06    -0.31   0.29   0.14    -0.02  -0.04  -0.03
                     40                     41                     42
                        a                      a                      a 
 Frequencies --  1443.6953              1449.6452              1460.2970
 Red. masses --     8.8948                 1.5404                 1.7144
 Frc consts  --     0.0000                 0.0000                 0.0000
 IR Inten    --    49.9614                12.2942                14.7990
 Raman Activ --     0.0000                 0.0000                 0.0000
 Depolar     --     0.0000                 0.0000                 0.0000
 Atom AN      X      Y      Z        X      Y      Z        X      Y      Z
   1   6     0.19  -0.00  -0.00     0.00  -0.00  -0.00     0.01  -0.02   0.00
   2   6     0.04   0.21  -0.00     0.00   0.00  -0.00    -0.01  -0.02   0.00
   3   6    -0.29  -0.22   0.00    -0.00  -0.00   0.00     0.06   0.07  -0.00
   4   6     0.20   0.08   0.02     0.00   0.00  -0.00    -0.02   0.01   0.00
   5   6     0.16   0.29  -0.01     0.00   0.01  -0.00     0.01  -0.01   0.00
   6   6    -0.29  -0.37   0.01    -0.01  -0.01   0.00     0.02   0.03  -0.00
   7   1    -0.10  -0.00   0.00    -0.00  -0.00   0.02    -0.06  -0.05   0.00
   8   1    -0.12  -0.02   0.00    -0.00  -0.00   0.00    -0.00  -0.01   0.00
   9   7    -0.18  -0.20   0.02    -0.00  -0.01   0.00    -0.00  -0.02  -0.00
  10   1    -0.04   0.28  -0.07    -0.00   0.01  -0.00    -0.00   0.02   0.00
  11   1     0.32   0.15  -0.06     0.01   0.00  -0.00     0.01   0.00  -0.00
  12   7     0.10  -0.02   0.00     0.00  -0.00   0.00    -0.04   0.00   0.00
  13   8     0.02   0.02  -0.00     0.00   0.00  -0.00     0.01   0.01  -0.00
  14   8    -0.04   0.04  -0.00    -0.00   0.00  -0.00     0.01  -0.02   0.00
  15   1    -0.19   0.14  -0.00    -0.00   0.00  -0.00     0.00  -0.01   0.00
  16   8     0.13   0.02  -0.00     0.00  -0.00   0.03    -0.05  -0.05   0.00
  17   6    -0.00  -0.04  -0.00    -0.00   0.00   0.22    -0.16  -0.12  -0.00
  18   1    -0.02   0.05  -0.03     0.47   0.02  -0.10     0.27   0.44  -0.37
  19   1    -0.02   0.05   0.02    -0.00  -0.02  -0.72     0.10  -0.32   0.02
  20   1    -0.00   0.05   0.04    -0.45  -0.00  -0.07     0.30   0.45   0.35
                     43                     44                     45
                        a                      a                      a 
 Frequencies --  1506.0104              1518.4390              1555.6623
 Red. masses --    12.1110                13.9220                11.7865
 Frc consts  --     0.0000                 0.0000                 0.0000
 IR Inten    --   311.5761               833.1229                33.1406
 Raman Activ --     0.0000                 0.0000                 0.0000
 Depolar     --     0.0000                 0.0000                 0.0000
 Atom AN      X      Y      Z        X      Y      Z        X      Y      Z
   1   6     0.22   0.10  -0.00    -0.24   0.03   0.00    -0.38   0.35  -0.00
   2   6    -0.46  -0.26   0.01     0.26   0.06  -0.00     0.09  -0.21   0.00
   3   6     0.35   0.09  -0.00    -0.15   0.07   0.00     0.02   0.36  -0.01
   4   6     0.09   0.34   0.00    -0.02  -0.22  -0.00     0.34  -0.16   0.00
   5   6    -0.05   0.02  -0.00     0.04   0.02  -0.00    -0.16   0.16  -0.00
   6   6     0.07  -0.13   0.00     0.01   0.01  -0.00     0.14  -0.50   0.01
   7   1     0.17   0.10  -0.00    -0.07  -0.06   0.00     0.07  -0.03  -0.00
   8   1     0.06   0.05  -0.00    -0.01  -0.02   0.00     0.00   0.07  -0.00
   9   7    -0.11  -0.23   0.01     0.05   0.12  -0.01    -0.06  -0.01   0.00
  10   1    -0.02   0.10  -0.02     0.01  -0.05   0.01    -0.02  -0.05  -0.01
  11   1     0.07  -0.01  -0.03    -0.03   0.01   0.02     0.04   0.02   0.01
  12   7    -0.15  -0.36   0.01     0.09  -0.71   0.01     0.05   0.17  -0.00
  13   8     0.14   0.24  -0.00     0.14   0.27  -0.00    -0.03  -0.09   0.00
  14   8    -0.05   0.11  -0.00    -0.20   0.35  -0.01    -0.01  -0.02   0.00
  15   1     0.04   0.04  -0.00     0.01  -0.04   0.00     0.12  -0.03  -0.00
  16   8    -0.10   0.01   0.00     0.03  -0.02   0.00    -0.06  -0.03   0.00
  17   6    -0.00   0.01   0.00     0.00   0.00  -0.00     0.02   0.01  -0.00
  18   1     0.00  -0.03   0.02    -0.00   0.01  -0.01    -0.00   0.00  -0.00
  19   1     0.00  -0.01  -0.00     0.00  -0.00   0.00     0.01  -0.02   0.00
  20   1    -0.00  -0.03  -0.02     0.00   0.01   0.01    -0.00   0.00   0.00
                     46                     47                     48
                        a                      a                      a 
 Frequencies --  1572.9724              2968.4607              2977.1475
 Red. masses --    11.6869                 1.9488                 1.4549
 Frc consts  --     0.0000                 0.0000                 0.0000
 IR Inten    --   382.2976                26.9398                31.7447
 Raman Activ --     0.0000                 0.0000                 0.0000
 Depolar     --     0.0000                 0.0000                 0.0000
 Atom AN      X      Y      Z        X      Y      Z        X      Y      Z
   1   6    -0.15  -0.06   0.00     0.00  -0.00   0.00     0.00  -0.00  -0.00
   2   6     0.25   0.14  -0.00     0.00  -0.00  -0.00     0.00  -0.00   0.00
   3   6    -0.04  -0.23   0.00     0.00   0.00  -0.00     0.00   0.00   0.00
   4   6     0.47   0.33  -0.00    -0.00   0.00   0.00    -0.00   0.00  -0.00
   5   6    -0.50  -0.27   0.01     0.00   0.00   0.00     0.00   0.00  -0.00
   6   6     0.12   0.26  -0.01    -0.00  -0.00   0.00    -0.00  -0.00   0.00
   7   1    -0.06  -0.04   0.00    -0.00   0.00  -0.00    -0.01   0.01   0.00
   8   1     0.11   0.09  -0.00    -0.00   0.00  -0.00     0.00   0.00  -0.00
   9   7    -0.13  -0.18   0.02    -0.00  -0.00  -0.00     0.00   0.00   0.00
  10   1    -0.03   0.05  -0.04     0.00  -0.00   0.00     0.00  -0.00  -0.00
  11   1     0.09   0.02  -0.03    -0.00   0.00   0.00    -0.00   0.00  -0.00
  12   7     0.04  -0.04   0.00     0.00   0.00  -0.00     0.00   0.00   0.00
  13   8    -0.02  -0.01   0.00    -0.00  -0.00   0.00    -0.00  -0.00   0.00
  14   8    -0.01   0.03  -0.00    -0.00   0.00   0.00    -0.00   0.00  -0.00
  15   1     0.02  -0.05   0.00     0.00  -0.00  -0.00    -0.00  -0.00   0.00
  16   8    -0.06   0.03   0.00    -0.00   0.00   0.01    -0.01   0.02  -0.00
  17   6     0.00  -0.02   0.00     0.01   0.04   0.29     0.07   0.18  -0.06
  18   1     0.01   0.01  -0.01    -0.15  -0.45  -0.63    -0.09  -0.29  -0.47
  19   1    -0.00  -0.00  -0.00     0.00   0.00   0.04     0.01   0.02  -0.01
  20   1     0.01   0.01   0.01     0.10   0.31  -0.43    -0.12  -0.41   0.68
                     49                     50                     51
                        a                      a                      a 
 Frequencies --  3043.2941              3117.1331              3118.3922
 Red. masses --     1.7211                 1.8175                 1.8089
 Frc consts  --     0.0000                 0.0000                 0.0000
 IR Inten    --     6.6960                10.2827                 5.4119
 Raman Activ --     0.0000                 0.0000                 0.0000
 Depolar     --     0.0000                 0.0000                 0.0000
 Atom AN      X      Y      Z        X      Y      Z        X      Y      Z
   1   6    -0.00  -0.00   0.00    -0.07  -0.11   0.00    -0.10  -0.18   0.00
   2   6     0.00  -0.00   0.00    -0.03   0.05  -0.00    -0.05   0.09  -0.00
   3   6    -0.00   0.00   0.00    -0.00   0.00   0.00    -0.00   0.00  -0.00
   4   6    -0.00   0.00  -0.00    -0.00  -0.01   0.00     0.00   0.00  -0.00
   5   6     0.00   0.00  -0.00     0.12  -0.19   0.00    -0.08   0.13  -0.00
   6   6     0.00  -0.00  -0.00     0.00  -0.00   0.00    -0.01  -0.00   0.00
   7   1    -0.00   0.00  -0.00     0.11  -0.19   0.00     0.19  -0.33   0.00
   8   1    -0.00  -0.00   0.00    -0.43   0.69  -0.01     0.27  -0.44   0.00
   9   7     0.00  -0.00  -0.00    -0.00   0.00  -0.00     0.00   0.00   0.00
  10   1    -0.00  -0.00   0.00     0.00   0.00  -0.00     0.00  -0.00  -0.00
  11   1     0.00  -0.00   0.00     0.00  -0.00   0.00    -0.00   0.00  -0.00
  12   7    -0.00   0.00  -0.00     0.00  -0.00   0.00    -0.00  -0.00   0.00
  13   8     0.00  -0.00  -0.00    -0.00   0.00  -0.00     0.00   0.00  -0.00
  14   8     0.00  -0.00   0.00     0.00   0.00  -0.00    -0.00  -0.00   0.00
  15   1     0.00   0.00  -0.00     0.24   0.41  -0.01     0.36   0.62  -0.01
  16   8     0.01  -0.00  -0.00    -0.00  -0.00   0.00    -0.00   0.00   0.00
  17   6     0.24   0.09  -0.00     0.00   0.00  -0.00     0.00   0.00   0.00
  18   1     0.03   0.02  -0.00    -0.00  -0.00  -0.00    -0.00  -0.00  -0.00
  19   1    -0.91  -0.33   0.01    -0.00  -0.00   0.00    -0.00  -0.00   0.00
  20   1     0.03   0.02   0.00    -0.00  -0.00   0.00    -0.00  -0.00   0.00
                     52                     53                     54
                        a                      a                      a 
 Frequencies --  3129.0708              3485.4824              3553.3911
 Red. masses --     1.8729                 1.4390                 2.1905
 Frc consts  --     0.0000                 0.0000                 0.0000
 IR Inten    --    12.3860               137.3480                69.7299
 Raman Activ --     0.0000                 0.0000                 0.0000
 Depolar     --     0.0000                 0.0000                 0.0000
 Atom AN      X      Y      Z        X      Y      Z        X      Y      Z
   1   6    -0.07  -0.11   0.00    -0.00  -0.00   0.00     0.00  -0.00   0.00
   2   6     0.12  -0.21   0.00     0.00   0.00   0.00    -0.00   0.00   0.00
   3   6     0.01   0.00  -0.00    -0.00  -0.00   0.00    -0.00  -0.00  -0.00
   4   6    -0.00   0.00  -0.00     0.00   0.01  -0.00    -0.01   0.00  -0.00
   5   6    -0.00   0.01  -0.00    -0.00  -0.00  -0.00     0.00  -0.00   0.00
   6   6    -0.00   0.00  -0.00    -0.00   0.00   0.00     0.00   0.00  -0.00
   7   1    -0.43   0.74  -0.01     0.00  -0.00  -0.00     0.00   0.00  -0.00
   8   1     0.01  -0.02   0.00     0.00   0.00  -0.00     0.00  -0.00  -0.00
   9   7     0.00  -0.00   0.00     0.11   0.13  -0.06    -0.25   0.17  -0.01
  10   1    -0.00   0.00   0.00    -0.75   0.04   0.13     0.59  -0.01  -0.11
  11   1     0.00  -0.00  -0.00     0.31  -0.53   0.10     0.35  -0.64   0.14
  12   7    -0.00  -0.00   0.00     0.00  -0.00   0.00    -0.00   0.00  -0.00
  13   8     0.00   0.00  -0.00    -0.00  -0.00  -0.00     0.00   0.00   0.00
  14   8     0.00  -0.00   0.00    -0.00   0.00  -0.00     0.00  -0.00   0.00
  15   1     0.22   0.37  -0.01     0.00   0.00  -0.00     0.00  -0.00  -0.00
  16   8     0.00  -0.00   0.00     0.00   0.00   0.00     0.00  -0.00  -0.00
  17   6    -0.00  -0.00  -0.00    -0.00   0.00  -0.00    -0.00   0.00   0.00
  18   1     0.00   0.00   0.00    -0.00  -0.00  -0.00    -0.00   0.00  -0.00
  19   1     0.01   0.00  -0.00     0.00  -0.00   0.00    -0.00   0.00  -0.00
  20   1     0.00   0.00  -0.00     0.00  -0.00   0.00    -0.00  -0.00   0.00
