      -----------------------------------------------------------      
     |                   =====================                   |     
     |                           x T B                           |     
     |                   =====================                   |     
     |                         S. Grimme                         |     
     |          Mulliken Center for Theoretical Chemistry        |     
     |                    University of Bonn                     |     
      -----------------------------------------------------------      

   * xtb version 6.4.1 (afa7bdf) compiled by 'ehlert@majestix' on 2021-06-10

   xtb is free software: you can redistribute it and/or modify it under
   the terms of the GNU Lesser General Public License as published by
   the Free Software Foundation, either version 3 of the License, or
   (at your option) any later version.
   
   xtb is distributed in the hope that it will be useful,
   but WITHOUT ANY WARRANTY; without even the implied warranty of
   MERCHANTABILITY or FITNESS FOR A PARTICULAR PURPOSE.  See the
   GNU Lesser General Public License for more details.
   
   Cite this work as:
   * C. Bannwarth, E. Caldeweyher, S. Ehlert, A. Hansen, P. Pracht,
     J. Seibert, S. Spicher, S. Grimme, WIREs Comput. Mol. Sci., 2020, 11,
     e01493. DOI: 10.1002/wcms.1493
   
   for GFN2-xTB:
   * C. Bannwarth, S. Ehlert and S. Grimme., J. Chem. Theory Comput., 2019,
     15, 1652-1671. DOI: 10.1021/acs.jctc.8b01176
   for GFN1-xTB:
   * S. Grimme, C. Bannwarth, P. Shushkov, J. Chem. Theory Comput., 2017,
     13, 1989-2009. DOI: 10.1021/acs.jctc.7b00118
   for GFN0-xTB:
   * P. Pracht, E. Caldeweyher, S. Ehlert, S. Grimme, ChemRxiv, 2019, preprint.
     DOI: 10.26434/chemrxiv.8326202.v1
   for GFN-FF:
   * S. Spicher and S. Grimme, Angew. Chem. Int. Ed., 2020, 59, 15665-15673.
     DOI: 10.1002/anie.202004239
   
   for DFT-D4:
   * E. Caldeweyher, C. Bannwarth and S. Grimme, J. Chem. Phys., 2017,
     147, 034112. DOI: 10.1063/1.4993215
   * E. Caldeweyher, S. Ehlert, A. Hansen, H. Neugebauer, S. Spicher,
     C. Bannwarth and S. Grimme, J. Chem. Phys., 2019, 150, 154122.
     DOI: 10.1063/1.5090222
   * E. Caldeweyher, J.-M. Mewes, S. Ehlert and S. Grimme, Phys. Chem. Chem. Phys.
     2020, 22, 8499-8512. DOI: 10.1039/D0CP00502A
   
   for sTDA-xTB:
   * S. Grimme and C. Bannwarth, J. Chem. Phys., 2016, 145, 054103.
     DOI: 10.1063/1.4959605
   
   in the mass-spec context:
   * V. Asgeirsson, C. Bauer and S. Grimme, Chem. Sci., 2017, 8, 4879.
     DOI: 10.1039/c7sc00601b
   * J. Koopman and S. Grimme, ACS Omega 2019, 4, 12, 15120-15133.
     DOI: 10.1021/acsomega.9b02011
   
   for metadynamics refer to:
   * S. Grimme, J. Chem. Theory Comput., 2019, 155, 2847-2862
     DOI: 10.1021/acs.jctc.9b00143
   
   for SPH calculations refer to:
   * S. Spicher and S. Grimme, J. Chem. Theory Comput., 2021, 17, 1701-1714
     DOI: 10.1021/acs.jctc.0c01306
   
   with help from (in alphabetical order)
   P. Atkinson, C. Bannwarth, F. Bohle, G. Brandenburg, E. Caldeweyher
   M. Checinski, S. Dohm, S. Ehlert, S. Ehrlich, I. Gerasimov, J. Koopman
   C. Lavigne, S. Lehtola, F. März, M. Müller, F. Musil, H. Neugebauer
   J. Pisarek, C. Plett, P. Pracht, J. Seibert, P. Shushkov, S. Spicher
   M. Stahn, M. Steiner, T. Strunk, J. Stückrath, T. Rose, and J. Unsleber
   
 * started run on 2021/11/15 at 09:36:19.830     

           -------------------------------------------------
          |                Calculation Setup                |
           -------------------------------------------------

          program call               : xtb 28_piperidine.xyz --gfn2 --chrg 0 --uhf 0 --alpb water --ohess -P 1
          coordinate file            : 28_piperidine.xyz
          omp threads                :                     1
          number of atoms            :                    17
          number of electrons        :                    36
          charge                     :                     0
          spin                       :                   0.0
          first test random number   :      0.00430149043241

   ID    Z sym.   atoms
    1    6 C      1-5
    2    1 H      6-15, 17
    3    7 N      16

           -------------------------------------------------
          |                 G F N 2 - x T B                 |
           -------------------------------------------------

        Reference                      10.1021/acs.jctc.8b01176
      * Hamiltonian:
        H0-scaling (s, p, d)           1.850000    2.230000    2.230000
        zeta-weighting                 0.500000
      * Dispersion:
        s8                             2.700000
        a1                             0.520000
        a2                             5.000000
        s9                             5.000000
      * Repulsion:
        kExp                           1.500000    1.000000
        rExp                           1.000000
      * Coulomb:
        alpha                          2.000000
        third order                    shell-resolved
        anisotropic                    true
        a3                             3.000000
        a5                             4.000000
        cn-shift                       1.200000
        cn-exp                         4.000000
        max-rad                        5.000000

      * Solvation model:               ALPB
        Solvent                        water
        Parameter file                 internal GFN2-xTB/ALPB
        Dielectric constant                8.0200E+01
        Reference state                gsolv [1 M gas/solution]
        Free energy shift                  1.0808E-03 Eh       6.7819E-01 kcal/mol
        Temperature                        2.9815E+02 K
        Density                            1.0000E+00 kg/L
        Solvent mass                       1.8000E+01 g/mol
        Interaction kernel             P16
        Born radius scaling (c1)           1.4744E+00
        Born radii integrator          GBOBC
        Born offset                        0.0000E+00 a0       0.0000E+00 AA
        H-bond correction              true
        Ion screening                  false
        Surface tension                    1.0000E-05 Eh       1.5569E+01 dyn/cm
        Grid points                               230 per atom

          ...................................................
          :                      SETUP                      :
          :.................................................:
          :  # basis functions                  35          :
          :  # atomic orbitals                  35          :
          :  # shells                           23          :
          :  # electrons                        36          :
          :  max. iterations                   250          :
          :  Hamiltonian                  GFN2-xTB          :
          :  restarted?                      false          :
          :  GBSA solvation                   true          :
          :  PC potential                    false          :
          :  electronic temp.          300.0000000     K    :
          :  accuracy                    1.0000000          :
          :  -> integral cutoff          0.2500000E+02      :
          :  -> integral neglect         0.1000000E-07      :
          :  -> SCF convergence          0.1000000E-05 Eh   :
          :  -> wf. convergence          0.1000000E-03 e    :
          :  Broyden damping             0.4000000          :
          ...................................................

 iter      E             dE          RMSdq      gap      omega  full diag
   1    -19.4737272 -0.194737E+02  0.255E+00   10.87       0.0  T
   2    -19.4920094 -0.182823E-01  0.146E+00   10.84       1.0  T
   3    -19.4928211 -0.811706E-03  0.535E-01   10.81       1.0  T
   4    -19.4928898 -0.687151E-04  0.837E-02   10.76       1.0  T
   5    -19.4928980 -0.817685E-05  0.329E-02   10.75       1.0  T
   6    -19.4928983 -0.259746E-06  0.352E-03   10.75       6.9  T
   7    -19.4928983 -0.261695E-07  0.194E-03   10.75      12.5  T
   8    -19.4928983 -0.449065E-08  0.477E-04   10.75      50.9  T
   9    -19.4928983 -0.492442E-09  0.222E-04   10.75     109.3  T

   *** convergence criteria satisfied after 9 iterations ***

         #    Occupation            Energy/Eh            Energy/eV
      -------------------------------------------------------------
         1        2.0000           -0.6378857             -17.3578
       ...           ...                  ...                  ...
        12        2.0000           -0.4675884             -12.7237
        13        2.0000           -0.4572829             -12.4433
        14        2.0000           -0.4407566             -11.9936
        15        2.0000           -0.4393549             -11.9555
        16        2.0000           -0.4238008             -11.5322
        17        2.0000           -0.4218548             -11.4793
        18        2.0000           -0.3564470              -9.6994 (HOMO)
        19                          0.0385605               1.0493 (LUMO)
        20                          0.0745335               2.0282
        21                          0.0798111               2.1718
        22                          0.0913566               2.4859
        23                          0.0949781               2.5845
       ...                                ...                  ...
        35                          0.2832713               7.7082
      -------------------------------------------------------------
                  HL-Gap            0.3950076 Eh           10.7487 eV
             Fermi-level           -0.1589433 Eh           -4.3251 eV

 SCC (total)                   0 d,  0 h,  0 min,  0.007 sec
 SCC setup                      ...        0 min,  0.000 sec (  6.564%)
 Dispersion                     ...        0 min,  0.000 sec (  1.486%)
 classical contributions        ...        0 min,  0.000 sec (  0.344%)
 integral evaluation            ...        0 min,  0.001 sec ( 15.305%)
 iterations                     ...        0 min,  0.003 sec ( 41.603%)
 molecular gradient             ...        0 min,  0.002 sec ( 32.260%)
 printout                       ...        0 min,  0.000 sec (  2.116%)

         :::::::::::::::::::::::::::::::::::::::::::::::::::::
         ::                     SUMMARY                     ::
         :::::::::::::::::::::::::::::::::::::::::::::::::::::
         :: total energy             -19.245071969000 Eh    ::
         :: total w/o Gsasa/hb       -19.243402006650 Eh    ::
         :: gradient norm              0.026099782102 Eh/a0 ::
         :: HOMO-LUMO gap             10.748702647937 eV    ::
         ::.................................................::
         :: SCC energy               -19.492898298991 Eh    ::
         :: -> isotropic ES            0.011614137500 Eh    ::
         :: -> anisotropic ES          0.005991299599 Eh    ::
         :: -> anisotropic XC          0.014126222816 Eh    ::
         :: -> dispersion             -0.010541721252 Eh    ::
         :: -> Gsolv                  -0.002700744344 Eh    ::
         ::    -> Gelec               -0.001030781994 Eh    ::
         ::    -> Gsasa               -0.001733918030 Eh    ::
         ::    -> Ghb                 -0.001016804018 Eh    ::
         ::    -> Gshift               0.001080759698 Eh    ::
         :: repulsion energy           0.247803573876 Eh    ::
         :: add. restraining           0.000000000000 Eh    ::
         :: total charge               0.000000000000 e     ::
         :::::::::::::::::::::::::::::::::::::::::::::::::::::

      ----------------------------------------------------------- 
     |                   =====================                   |
     |                        A N C O P T                        |
     |                   =====================                   |
     |               Approximate Normal Coordinate               |
     |                Rational Function Optimizer                |
      ----------------------------------------------------------- 

          ...................................................
          :                      SETUP                      :
          :.................................................:
          :   optimization level            normal          :
          :   max. optcycles                   200          :
          :   ANC micro-cycles                  20          :
          :   degrees of freedom                45          :
          :.................................................:
          :   RF solver                   davidson          :
          :   write xtbopt.log                true          :
          :   linear?                        false          :
          :   energy convergence         0.5000000E-05 Eh   :
          :   grad. convergence          0.1000000E-02 Eh/α :
          :   maximium RF displ.         1.0000000          :
          :   Hlow (freq-cutoff)         0.1000000E-01      :
          :   Hmax (freq-cutoff)         5.0000000          :
          :   S6 in model hess.         20.0000000          :
          ...................................................

generating ANC from model Hessian ...
Using Lindh-Hessian (1995)
 Shifting diagonal of input Hessian by   1.296358553730306E-003
 Lowest  eigenvalues of input Hessian
    0.000000    0.000000    0.000000    0.000000    0.000000    0.000000
    0.010000    0.011301    0.020582    0.023402    0.025362    0.028719
    0.049908    0.050757    0.051972    0.054577    0.055058    0.058224
 Highest eigenvalues
    1.158790    1.179668    1.217970    1.229581    1.328609    1.386007
 

........................................................................
.............................. CYCLE    1 ..............................
........................................................................
   1    -19.4928983 -0.194929E+02  0.363E-05   10.75       0.0  T
   2    -19.4928983 -0.563816E-11  0.203E-05   10.75    1194.9  T
   3    -19.4928983 -0.429878E-12  0.125E-05   10.75    1944.8  T
     SCC iter.                  ...        0 min,  0.002 sec
     gradient                   ...        0 min,  0.004 sec
 * total energy  :   -19.2450720 Eh     change       -0.4883560E-10 Eh
   gradient norm :     0.0255419 Eh/α   predicted     0.0000000E+00 (-100.00%)
   displ. norm   :     0.1930297 α      lambda       -0.2299871E-02
   maximum displ.:     0.1069675 α      in ANC's #6, #2, #18, ...

........................................................................
.............................. CYCLE    2 ..............................
........................................................................
   1    -19.5007165 -0.195007E+02  0.130E-01   10.98       0.0  T
   2    -19.5007224 -0.586588E-05  0.774E-02   10.98       1.0  T
   3    -19.5007228 -0.384549E-06  0.983E-03   10.98       2.5  T
   4    -19.5007232 -0.473387E-06  0.331E-03   10.98       7.3  T
   5    -19.5007232 -0.110707E-07  0.147E-03   10.98      16.5  T
   6    -19.5007233 -0.137353E-08  0.360E-04   10.98      67.3  T
   7    -19.5007233 -0.227818E-09  0.130E-04   10.98     187.2  T
     SCC iter.                  ...        0 min,  0.002 sec
     gradient                   ...        0 min,  0.002 sec
 * total energy  :   -19.2455355 Eh     change       -0.4635790E-03 Eh
   gradient norm :     0.0208744 Eh/α   predicted    -0.1192782E-02 ( 157.30%)
   displ. norm   :     0.1277223 α      lambda       -0.1250243E-02
   maximum displ.:     0.0628043 α      in ANC's #3, #18, #4, ...

........................................................................
.............................. CYCLE    3 ..............................
........................................................................
   1    -19.5067291 -0.195067E+02  0.130E-01   11.10       0.0  T
   2    -19.5067324 -0.329560E-05  0.760E-02   11.10       1.0  T
   3    -19.5067327 -0.316395E-06  0.624E-03   11.10       3.9  T
   4    -19.5067329 -0.172984E-06  0.227E-03   11.10      10.7  T
   5    -19.5067329 -0.183340E-08  0.903E-04   11.10      26.8  T
   6    -19.5067329 -0.414481E-09  0.161E-04   11.10     150.7  T
     SCC iter.                  ...        0 min,  0.002 sec
     gradient                   ...        0 min,  0.002 sec
 * total energy  :   -19.2460584 Eh     change       -0.5228024E-03 Eh
   gradient norm :     0.0096798 Eh/α   predicted    -0.6353172E-03 (  21.52%)
   displ. norm   :     0.0761636 α      lambda       -0.3412506E-03
   maximum displ.:     0.0425923 α      in ANC's #2, #3, #6, ...

........................................................................
.............................. CYCLE    4 ..............................
........................................................................
   1    -19.5051063 -0.195051E+02  0.502E-02   11.06       0.0  T
   2    -19.5051066 -0.343607E-06  0.300E-02   11.06       1.0  T
   3    -19.5051067 -0.663824E-07  0.218E-03   11.06      11.1  T
   4    -19.5051067 -0.223497E-07  0.107E-03   11.06      22.8  T
   5    -19.5051067 -0.899689E-09  0.360E-04   11.06      67.5  T
   6    -19.5051067 -0.137167E-09  0.865E-05   11.06     280.3  T
     SCC iter.                  ...        0 min,  0.002 sec
     gradient                   ...        0 min,  0.002 sec
 * total energy  :   -19.2462912 Eh     change       -0.2328768E-03 Eh
   gradient norm :     0.0042007 Eh/α   predicted    -0.1716138E-03 ( -26.31%)
   displ. norm   :     0.0930638 α      lambda       -0.1328286E-03
   maximum displ.:     0.0787382 α      in ANC's #2, #3, #6, ...

........................................................................
.............................. CYCLE    5 ..............................
........................................................................
   1    -19.5040350 -0.195040E+02  0.332E-02   11.05       0.0  T
   2    -19.5040350 -0.897485E-07  0.197E-02   11.05       1.2  T
   3    -19.5040351 -0.377578E-07  0.125E-03   11.05      19.4  T
   4    -19.5040351 -0.131154E-08  0.637E-04   11.05      38.1  T
   5    -19.5040351 -0.285741E-09  0.135E-04   11.05     179.5  T
     SCC iter.                  ...        0 min,  0.002 sec
     gradient                   ...        0 min,  0.002 sec
 * total energy  :   -19.2463678 Eh     change       -0.7654809E-04 Eh
   gradient norm :     0.0012231 Eh/α   predicted    -0.6698941E-04 ( -12.49%)
   displ. norm   :     0.0575869 α      lambda       -0.1726901E-04
   maximum displ.:     0.0509686 α      in ANC's #2, #3, #4, ...

........................................................................
.............................. CYCLE    6 ..............................
........................................................................
   1    -19.5041359 -0.195041E+02  0.186E-02   11.05       0.0  T
   2    -19.5041359 -0.297312E-07  0.110E-02   11.05       2.2  T
   3    -19.5041359 -0.765155E-08  0.683E-04   11.05      35.5  T
   4    -19.5041359 -0.192592E-08  0.356E-04   11.05      68.1  T
     SCC iter.                  ...        0 min,  0.001 sec
     gradient                   ...        0 min,  0.002 sec
 * total energy  :   -19.2463816 Eh     change       -0.1378116E-04 Eh
   gradient norm :     0.0011554 Eh/α   predicted    -0.8646158E-05 ( -37.26%)
   displ. norm   :     0.0192027 α      lambda       -0.4430472E-05
   maximum displ.:     0.0153553 α      in ANC's #2, #4, #3, ...

........................................................................
.............................. CYCLE    7 ..............................
........................................................................
   1    -19.5043803 -0.195044E+02  0.101E-02   11.04       0.0  T
   2    -19.5043803 -0.111602E-07  0.604E-03   11.04       4.0  T
   3    -19.5043803 -0.171259E-08  0.316E-04   11.04      76.7  T
   4    -19.5043803 -0.331088E-09  0.164E-04   11.04     147.7  T
     SCC iter.                  ...        0 min,  0.002 sec
     gradient                   ...        0 min,  0.002 sec
 * total energy  :   -19.2463840 Eh     change       -0.2451535E-05 Eh
   gradient norm :     0.0004041 Eh/α   predicted    -0.2216569E-05 (  -9.58%)
   displ. norm   :     0.0036246 α      lambda       -0.6343602E-06
   maximum displ.:     0.0019893 α      in ANC's #15, #4, #18, ...

   *** GEOMETRY OPTIMIZATION CONVERGED AFTER 7 ITERATIONS ***

------------------------------------------------------------------------
 total energy gain   :        -0.0013120 Eh       -0.8233 kcal/mol
 total RMSD          :         0.0557965 a0        0.0295 Å
 total power (kW/mol):        -0.4921083 (step)  -68.5019 (real)
------------------------------------------------------------------------

 ANCopt (total)                0 d,  0 h,  0 min,  0.050 sec
 optimizer setup                ...        0 min,  0.000 sec (  0.338%)
 model hessian                  ...        0 min,  0.008 sec ( 15.328%)
 ANC generation                 ...        0 min,  0.000 sec (  0.646%)
 coordinate transformation      ...        0 min,  0.000 sec (  0.101%)
 single point calculation       ...        0 min,  0.039 sec ( 78.269%)
 optimization log               ...        0 min,  0.001 sec (  2.837%)
 hessian update                 ...        0 min,  0.000 sec (  0.095%)
 rational function              ...        0 min,  0.001 sec (  1.528%)

================
 final structure:
================
17
 xtb: 6.4.1 (afa7bdf)
C         0.01645199578351    0.74743105083399    1.25038739595892
C        -0.65453221105530    1.31365813215534    0.00000000012484
C         0.01645199339463    0.74743105071784   -1.25038739666146
C        -0.00103433773897   -0.78505228601007   -1.19898525860757
C        -0.00103433967221   -0.78505228666846    1.19898525695957
H        -0.49859456800242    1.09289164611157   -2.14769336211515
H        -1.71049329976858    1.03307075787217    0.00000000347238
H        -0.59511103909877    2.40401714886385   -0.00000000000818
H         1.05210833497552    1.09484774150019    1.29825886913820
H        -0.49859456383136    1.09289164664647    2.14769336149875
H        -1.03688591302471   -1.13826326152107   -1.21369702739300
H         0.51508584218964   -1.20285443200091   -2.06642876199984
H        -1.03688591711996   -1.13826326048893    1.21369702580079
H         0.51508583682465   -1.20285443250075    2.06642876220463
H         1.05210833149568    1.09484774253585   -1.29825887156138
N         0.62144656859784   -1.32299325017700    0.00000000060746
H         1.60603628605082   -1.06918570787007    0.00000000258105
 
 Bond Distances (Angstroems)
 ---------------------------
C1-C2=1.5278         C1-C5=1.5334         C1-H9=1.0934         C1-H10=1.0908        C2-C1=1.5278         C2-C3=1.5278         
C2-H7=1.0926         C2-H8=1.0920         C3-C2=1.5278         C3-C4=1.5334         C3-H6=1.0908         C3-H15=1.0934        
C4-C3=1.5334         C4-H11=1.0945        C4-H12=1.0924        C4-N16=1.4541        C5-C1=1.5334         C5-H13=1.0945        
C5-H14=1.0924        C5-N16=1.4541        H6-C3=1.0908         H7-C2=1.0926         H8-C2=1.0920         H9-C1=1.0934         
H10-C1=1.0908        H11-C4=1.0945        H12-C4=1.0924        H13-C5=1.0945        H14-C5=1.0924        H15-C3=1.0934        
N16-C4=1.4541        N16-C5=1.4541        N16-H17=1.0168       H17-N16=1.0168       
 C  H  Rav=1.0927 sigma=0.0013  Rmin=1.0908  Rmax=1.0945    10
 C  C  Rav=1.5306 sigma=0.0028  Rmin=1.5278  Rmax=1.5334     4
 N  H  Rav=1.0168 sigma=0.0000  Rmin=1.0168  Rmax=1.0168     1
 N  C  Rav=1.4541 sigma=0.0000  Rmin=1.4541  Rmax=1.4541     2
 
 selected bond angles (degree)
 --------------------
C5-C1-C2=109.75                H9-C1-C2=109.51                H9-C1-C5=109.26                H10-C1-C2=110.40               
H10-C1-C5=109.80               H10-C1-H9=108.10               C3-C2-C1=109.85                H7-C2-C1=109.22                
H7-C2-C3=109.22                H8-C2-C1=110.25                H8-C2-C3=110.25                H8-C2-H7=108.00                
C4-C3-C2=109.75                H6-C3-C2=110.40                H6-C3-C4=109.80                H15-C3-C2=109.51               
H15-C3-C4=109.26               H15-C3-H6=108.10               H11-C4-C3=109.44               H12-C4-C3=110.50               
H12-C4-H11=108.24              N16-C4-C3=113.11               N16-C4-H11=107.27              N16-C4-H12=108.12              
H13-C5-C1=109.44               H14-C5-C1=110.50               H14-C5-H13=108.24              N16-C5-C1=113.11               
N16-C5-H13=107.27              N16-C5-H14=108.12              
 
 selected dihedral angles (degree)
 ---------------------------------
C3-C2-C1-C5=304.98            C3-C2-C1-H9= 64.92            C3-C2-C1-H10=183.82           H7-C2-C1-C5= 64.76            
H7-C2-C1-H9=184.70            H7-C2-C1-H10=303.60           H8-C2-C1-C5=183.28            H8-C2-C1-H9=303.22            
H8-C2-C1-H10= 62.12           C4-C3-C2-C1= 55.02            C4-C3-C2-H7=295.24            C4-C3-C2-H8=176.72            
H6-C3-C2-C1=176.18            H6-C3-C2-H7= 56.40            H6-C3-C2-H8=297.88            H15-C3-C2-C1=295.08           
H15-C3-C2-H7=175.30           H15-C3-C2-H8= 56.78           H11-C4-C3-C2= 63.39           H11-C4-C3-H6=301.87           
H11-C4-C3-H15=183.48          H12-C4-C3-C2=182.49           H12-C4-C3-H6= 60.97           H12-C4-C3-H15=302.59          
N16-C4-C3-C2=303.86           N16-C4-C3-H6=182.34           N16-C4-C3-H15= 63.95          H13-C5-C1-C2=296.61           
H13-C5-C1-H9=176.52           H13-C5-C1-H10= 58.13          H14-C5-C1-C2=177.51           H14-C5-C1-H9= 57.41           
H14-C5-C1-H10=299.03          N16-C5-C1-C2= 56.14           N16-C5-C1-H9=296.05           N16-C5-C1-H10=177.66          
           -------------------------------------------------
          |                Final Singlepoint                |
           -------------------------------------------------

          ...................................................
          :                      SETUP                      :
          :.................................................:
          :  # basis functions                  35          :
          :  # atomic orbitals                  35          :
          :  # shells                           23          :
          :  # electrons                        36          :
          :  max. iterations                   250          :
          :  Hamiltonian                  GFN2-xTB          :
          :  restarted?                      false          :
          :  GBSA solvation                   true          :
          :  PC potential                    false          :
          :  electronic temp.          300.0000000     K    :
          :  accuracy                    1.0000000          :
          :  -> integral cutoff          0.2500000E+02      :
          :  -> integral neglect         0.1000000E-07      :
          :  -> SCF convergence          0.1000000E-05 Eh   :
          :  -> wf. convergence          0.1000000E-03 e    :
          :  Broyden damping             0.4000000          :
          ...................................................

 iter      E             dE          RMSdq      gap      omega  full diag
   1    -19.5043803 -0.195044E+02  0.607E-05   11.04       0.0  T
   2    -19.5043803 -0.177636E-11  0.368E-05   11.04     659.9  T
   3    -19.5043803 -0.348166E-12  0.735E-06   11.04    3299.7  T

   *** convergence criteria satisfied after 3 iterations ***

         #    Occupation            Energy/Eh            Energy/eV
      -------------------------------------------------------------
         1        2.0000           -0.6401756             -17.4201
       ...           ...                  ...                  ...
        12        2.0000           -0.4667357             -12.7005
        13        2.0000           -0.4578779             -12.4595
        14        2.0000           -0.4414633             -12.0128
        15        2.0000           -0.4392531             -11.9527
        16        2.0000           -0.4242117             -11.5434
        17        2.0000           -0.4222627             -11.4904
        18        2.0000           -0.3515008              -9.5648 (HOMO)
        19                          0.0542995               1.4776 (LUMO)
        20                          0.0885576               2.4098
        21                          0.0924241               2.5150
        22                          0.0985156               2.6807
        23                          0.1023366               2.7847
       ...                                ...                  ...
        35                          0.3015967               8.2069
      -------------------------------------------------------------
                  HL-Gap            0.4058003 Eh           11.0424 eV
             Fermi-level           -0.1486006 Eh           -4.0436 eV

 SCC (total)                   0 d,  0 h,  0 min,  0.005 sec
 SCC setup                      ...        0 min,  0.000 sec (  6.628%)
 Dispersion                     ...        0 min,  0.000 sec (  0.725%)
 classical contributions        ...        0 min,  0.000 sec (  0.279%)
 integral evaluation            ...        0 min,  0.001 sec ( 18.933%)
 iterations                     ...        0 min,  0.001 sec ( 27.477%)
 molecular gradient             ...        0 min,  0.002 sec ( 43.009%)
 printout                       ...        0 min,  0.000 sec (  2.598%)

         :::::::::::::::::::::::::::::::::::::::::::::::::::::
         ::                     SUMMARY                     ::
         :::::::::::::::::::::::::::::::::::::::::::::::::::::
         :: total energy             -19.246384008066 Eh    ::
         :: total w/o Gsasa/hb       -19.244792514240 Eh    ::
         :: gradient norm              0.000403958534 Eh/a0 ::
         :: HOMO-LUMO gap             11.042389184636 eV    ::
         ::.................................................::
         :: SCC energy               -19.504380328188 Eh    ::
         :: -> isotropic ES            0.011608217956 Eh    ::
         :: -> anisotropic ES          0.005621222926 Eh    ::
         :: -> anisotropic XC          0.014134831924 Eh    ::
         :: -> dispersion             -0.010603454319 Eh    ::
         :: -> Gsolv                  -0.002537117178 Eh    ::
         ::    -> Gelec               -0.000945623353 Eh    ::
         ::    -> Gsasa               -0.001665754980 Eh    ::
         ::    -> Ghb                 -0.001006498543 Eh    ::
         ::    -> Gshift               0.001080759698 Eh    ::
         :: repulsion energy           0.257974624772 Eh    ::
         :: add. restraining           0.000000000000 Eh    ::
         :: total charge               0.000000000000 e     ::
         :::::::::::::::::::::::::::::::::::::::::::::::::::::

           ------------------------------------------------- 
          |                Numerical Hessian                |
           ------------------------------------------------- 
step length          :   0.00500
SCC accuracy         :   0.30000
Hessian scale factor :   1.00000
frozen atoms in %    :   0.00000    0
RMS gradient         :   0.00040
estimated CPU  time      0.01 min
estimated wall time      0.01 min

writing file <hessian>.

 projected vibrational frequencies (cm⁻¹)
eigval :        0.00     0.00     0.00     0.00     0.00     0.00
eigval :      231.86   248.15   394.50   426.63   441.22   563.03
eigval :      823.55   833.85   873.52   909.88   932.20   948.00
eigval :      959.89  1007.49  1066.15  1089.53  1107.19  1124.30
eigval :     1176.09  1191.48  1234.45  1247.47  1284.29  1303.23
eigval :     1326.57  1327.90  1344.05  1346.99  1404.72  1472.60
eigval :     1479.16  1482.26  1483.03  1497.80  2940.43  2942.61
eigval :     2952.78  2956.04  2962.95  2964.36  2966.23  2973.60
eigval :     2983.83  2987.96  3349.35
           -------------------------------------------------
          |                Property Printout                |
           -------------------------------------------------

    * Orbital Energies and Occupations

         #    Occupation            Energy/Eh            Energy/eV
      -------------------------------------------------------------
         1        2.0000           -0.6401756             -17.4201
       ...           ...                  ...                  ...
         6        2.0000           -0.5580525             -15.1854
         7        2.0000           -0.5254152             -14.2973
         8        2.0000           -0.5088086             -13.8454
         9        2.0000           -0.5066667             -13.7871
        10        2.0000           -0.4933940             -13.4259
        11        2.0000           -0.4856260             -13.2146
        12        2.0000           -0.4667357             -12.7005
        13        2.0000           -0.4578779             -12.4595
        14        2.0000           -0.4414633             -12.0128
        15        2.0000           -0.4392531             -11.9527
        16        2.0000           -0.4242117             -11.5434
        17        2.0000           -0.4222627             -11.4904
        18        2.0000           -0.3515008              -9.5648 (HOMO)
        19                          0.0542995               1.4776 (LUMO)
        20                          0.0885576               2.4098
        21                          0.0924241               2.5150
        22                          0.0985155               2.6807
        23                          0.1023366               2.7847
        24                          0.1274239               3.4674
        25                          0.1453259               3.9545
        26                          0.1738192               4.7299
        27                          0.1799322               4.8962
        28                          0.1855974               5.0504
        29                          0.1980199               5.3884
       ...                                ...                  ...
        35                          0.3015967               8.2069
      -------------------------------------------------------------
                  HL-Gap            0.4058004 Eh           11.0424 eV
             Fermi-level           -0.1486007 Eh           -4.0436 eV

     #   Z          covCN         q      C6AA      α(0)
     1   6 C        3.803    -0.067    21.776     6.644
     2   6 C        3.806    -0.057    21.598     6.616
     3   6 C        3.803    -0.067    21.776     6.644
     4   6 C        3.750     0.008    20.499     6.457
     5   6 C        3.750     0.008    20.499     6.457
     6   1 H        0.924     0.030     2.581     2.513
     7   1 H        0.924     0.032     2.553     2.499
     8   1 H        0.924     0.028     2.614     2.528
     9   1 H        0.924     0.029     2.601     2.522
    10   1 H        0.924     0.030     2.581     2.513
    11   1 H        0.924     0.034     2.529     2.487
    12   1 H        0.924     0.032     2.561     2.502
    13   1 H        0.924     0.034     2.529     2.487
    14   1 H        0.924     0.032     2.561     2.502
    15   1 H        0.924     0.029     2.601     2.522
    16   7 N        2.677    -0.290    27.474     7.785
    17   1 H        0.860     0.153     1.381     1.841

 Mol. C6AA /au·bohr⁶  :       2062.648472
 Mol. C8AA /au·bohr⁸  :      43286.687398
 Mol. α(0) /au        :         67.517767


Wiberg/Mayer (AO) data.
largest (>0.10) Wiberg bond orders for each atom

 ---------------------------------------------------------------------------
     #   Z sym  total        # sym  WBO       # sym  WBO       # sym  WBO
 ---------------------------------------------------------------------------
     1   6 C    3.998 --     2 C    1.009     5 C    0.995     9 H    0.978
                            10 H    0.977
     2   6 C    3.998 --     3 C    1.009     1 C    1.009     7 H    0.978
                             8 H    0.978
     3   6 C    3.998 --     2 C    1.009     4 C    0.995    15 H    0.978
                             6 H    0.977
     4   6 C    3.987 --    16 N    1.016     3 C    0.995    12 H    0.975
                            11 H    0.973
     5   6 C    3.987 --    16 N    1.016     1 C    0.995    14 H    0.975
                            13 H    0.973
     6   1 H    0.999 --     3 C    0.977
     7   1 H    0.999 --     2 C    0.978
     8   1 H    0.999 --     2 C    0.978
     9   1 H    0.999 --     1 C    0.978
    10   1 H    0.999 --     1 C    0.977
    11   1 H    0.999 --     4 C    0.973
    12   1 H    0.999 --     4 C    0.975
    13   1 H    0.999 --     5 C    0.973
    14   1 H    0.999 --     5 C    0.975
    15   1 H    0.999 --     3 C    0.978
    16   7 N    3.063 --     4 C    1.016     5 C    1.016    17 H    0.952
    17   1 H    0.977 --    16 N    0.952
 ---------------------------------------------------------------------------

Topologies differ in total number of bonds
Writing topology from bond orders to xtbtopo.mol

molecular dipole:
                 x           y           z       tot (Debye)
 q only:        0.040       0.206      -0.000
   full:        0.114       0.535      -0.000       1.389
molecular quadrupole (traceless):
                xx          xy          yy          xz          yz          zz
 q only:        0.849       0.002      -1.875       0.000       0.000       1.026
  q+dip:        3.534       1.083      -4.296      -0.000       0.000       0.762
   full:        2.965       0.722      -4.303      -0.000       0.000       1.338

           -------------------------------------------------
          |                Geometry Summary                 |
           -------------------------------------------------

      molecular mass/u    :       85.1477310
   center of mass at/Å    :        0.0067196      -0.0185440       0.0000000
  moments of inertia/u·Å² :        0.1107515E+03   0.1137420E+03   0.1957165E+03
rotational constants/cm⁻¹ :        0.1522113E+00   0.1482093E+00   0.8613291E-01

 * 17 selected distances

     #   Z          #   Z                                           value/Å
     1   6 C        2   6 C                                       1.5278421
     2   6 C        3   6 C                                       1.5278421
     3   6 C        4   6 C                                       1.5334449
     1   6 C        5   6 C                                       1.5334449 (max)
     3   6 C        6   1 H                                       1.0907676
     2   6 C        7   1 H                                       1.0926038
     2   6 C        8   1 H                                       1.0919770
     1   6 C        9   1 H                                       1.0934231
     1   6 C       10   1 H                                       1.0907676
     4   6 C       11   1 H                                       1.0945149
     4   6 C       12   1 H                                       1.0924271
     5   6 C       13   1 H                                       1.0945149
     5   6 C       14   1 H                                       1.0924271
     3   6 C       15   1 H                                       1.0934231
     4   6 C       16   7 N                                       1.4541075
     5   6 C       16   7 N                                       1.4541075
    16   7 N       17   1 H                                       1.0167769 (min)

 * 4 distinct bonds (by element types)

   Z      Z             #   av. dist./Å        max./Å        min./Å
   1 H    6 C          10     1.0926846     1.0945149     1.0907676
   6 C    6 C           4     1.5306435     1.5334449     1.5278421
   1 H    7 N           1     1.0167769     1.0167769     1.0167769
   6 C    7 N           2     1.4541075     1.4541075     1.4541075

           -------------------------------------------------
          |               Frequency Printout                |
           -------------------------------------------------
 projected vibrational frequencies (cm⁻¹)
eigval :        0.00     0.00     0.00     0.00     0.00     0.00
eigval :      231.86   248.15   394.50   426.63   441.22   563.03
eigval :      823.55   833.85   873.52   909.88   932.20   948.00
eigval :      959.89  1007.49  1066.15  1089.53  1107.19  1124.30
eigval :     1176.09  1191.48  1234.45  1247.47  1284.29  1303.23
eigval :     1326.57  1327.90  1344.05  1346.99  1404.72  1472.60
eigval :     1479.16  1482.26  1483.03  1497.80  2940.43  2942.61
eigval :     2952.78  2956.04  2962.95  2964.36  2966.23  2973.60
eigval :     2983.83  2987.96  3349.35
 reduced masses (amu)
   1: 10.53   2:  9.99   3:  9.73   4: 10.15   5:  9.91   6: 10.46   7:  6.19   8:  7.07
   9:  6.15  10:  9.91  11:  9.11  12:  4.62  13:  4.50  14:  4.62  15:  9.63  16:  5.93
  17:  7.80  18:  6.19  19:  4.15  20:  7.85  21:  7.21  22:  1.51  23:  5.31  24:  8.65
  25:  7.26  26:  6.63  27:  3.66  28:  3.43  29:  4.02  30:  3.38  31:  4.26  32:  4.22
  33:  4.56  34:  4.88  35:  3.28  36:  1.83  37:  1.92  38:  1.98  39:  1.88  40:  2.03
  41:  1.85  42:  1.81  43:  1.87  44:  1.88  45:  1.82  46:  1.59  47:  1.74  48:  1.51
  49:  1.60  50:  1.59  51:  1.83
 IR intensities (km·mol⁻¹)
   1:  0.07   2:  0.24   3:  0.55   4:  0.22   5:  0.13   6:  0.01   7:  0.01   8:  4.66
   9:  5.58  10:  0.81  11:  1.49  12:  1.31  13: 62.18  14:  0.01  15:  6.87  16: 93.43
  17:  1.28  18:  0.09  19:  8.72  20: 14.06  21: 12.13  22:  3.77  23: 15.51  24:  3.68
  25:  8.04  26: 19.06  27: 12.35  28:  0.08  29:  2.08  30:  3.77  31: 37.65  32:  5.71
  33:  2.81  34:  0.93  35: 33.74  36:  0.15  37:  0.18  38:  0.69  39:  0.40  40:  0.21
  41:  3.29  42: 86.56  43: 62.58  44:  2.90  45:277.47  46: 99.38  47: 85.82  48: 90.19
  49:198.95  50: 60.62  51: 18.03
 Raman intensities (amu)
   1:  0.00   2:  0.00   3:  0.00   4:  0.00   5:  0.00   6:  0.00   7:  0.00   8:  0.00
   9:  0.00  10:  0.00  11:  0.00  12:  0.00  13:  0.00  14:  0.00  15:  0.00  16:  0.00
  17:  0.00  18:  0.00  19:  0.00  20:  0.00  21:  0.00  22:  0.00  23:  0.00  24:  0.00
  25:  0.00  26:  0.00  27:  0.00  28:  0.00  29:  0.00  30:  0.00  31:  0.00  32:  0.00
  33:  0.00  34:  0.00  35:  0.00  36:  0.00  37:  0.00  38:  0.00  39:  0.00  40:  0.00
  41:  0.00  42:  0.00  43:  0.00  44:  0.00  45:  0.00  46:  0.00  47:  0.00  48:  0.00
  49:  0.00  50:  0.00  51:  0.00
 output can be read by thermo (or use thermo option).
 writing <g98.out> molden fake output.
 recommended (thermochemical) frequency scaling factor: 1.0
           -------------------------------------------------
          |             Thermodynamic Functions             |
           -------------------------------------------------

Molecule has the following symmetry elements: (sigma) 
It seems to be the Cs point group
cs  symmetry found (for desy threshold:  0.10E+00) used in thermo

          ...................................................
          :                      SETUP                      :
          :.................................................:
          :  # frequencies                          45      :
          :  # imaginary freq.                       0      :
          :  linear?                             false      :
          :  only rotor calc.                    false      :
          :  symmetry                               cs      :
          :  rotational number                       1      :
          :  scaling factor                  1.0000000      :
          :  rotor cutoff                   50.0000000 cm⁻¹ :
          :  imag. cutoff                  -20.0000000 cm⁻¹ :
          :.................................................:

    mode    ω/cm⁻¹     T·S(HO)/kcal·mol⁻¹    T·S(FR)/kcal·mol⁻¹   T·S(vib)
   ------------------------------------------------------------------------
       1    231.86    -0.55591 ( 99.78%)    -0.60193 (  0.22%)    -0.55601
       2    248.15    -0.51988 ( 99.84%)    -0.58182 (  0.16%)    -0.51998
   ------------------------------------------------------------------------

   temp. (K)  partition function   enthalpy   heat capacity  entropy
                                   cal/mol     cal/K/mol   cal/K/mol   J/K/mol
 298.15  VIB   4.05                 1718.623     16.120      8.545
         ROT  0.120E+06              888.752      2.981     26.222
         INT  0.486E+06             2607.375     19.101     34.766
         TR   0.760E+27             1481.254      4.968     39.221
         TOT                        4088.6293    24.0694    73.9870   309.5615

       T/K    H(0)-H(T)+PV         H(T)/Eh          T*S/Eh         G(T)/Eh
   ------------------------------------------------------------------------
    298.15    0.651565E-02    0.162714E+00    0.351536E-01    0.127560E+00
   ------------------------------------------------------------------------

         :::::::::::::::::::::::::::::::::::::::::::::::::::::
         ::                  THERMODYNAMIC                  ::
         :::::::::::::::::::::::::::::::::::::::::::::::::::::
         :: total free energy         -19.118823563564 Eh   ::
         ::.................................................::
         :: total energy              -19.246384007610 Eh   ::
         :: zero point energy           0.156198398142 Eh   ::
         :: G(RRHO) w/o ZPVE           -0.028637954096 Eh   ::
         :: G(RRHO) contrib.            0.127560444046 Eh   ::
         :::::::::::::::::::::::::::::::::::::::::::::::::::::

optimized geometry written to: xtbopt.xyz


           -------------------------------------------------
          | TOTAL ENERGY              -19.246384007610 Eh   |
          | TOTAL ENTHALPY            -19.083669964016 Eh   |
          | TOTAL FREE ENERGY         -19.118823563564 Eh   |
          | GRADIENT NORM               0.000403936169 Eh/α |
          | HOMO-LUMO GAP              11.042390002139 eV   |
           -------------------------------------------------

------------------------------------------------------------------------
 * finished run on 2021/11/15 at 09:36:20.532     
------------------------------------------------------------------------
 total:
 * wall-time:     0 d,  0 h,  0 min,  0.702 sec
 *  cpu-time:     0 d,  0 h,  0 min,  0.672 sec
 * ratio c/w:     0.957 speedup
 SCF:
 * wall-time:     0 d,  0 h,  0 min,  0.007 sec
 *  cpu-time:     0 d,  0 h,  0 min,  0.000 sec
 * ratio c/w:     0.000 speedup
 ANC optimizer:
 * wall-time:     0 d,  0 h,  0 min,  0.057 sec
 *  cpu-time:     0 d,  0 h,  0 min,  0.062 sec
 * ratio c/w:     1.101 speedup
 analytical hessian:
 * wall-time:     0 d,  0 h,  0 min,  0.596 sec
 *  cpu-time:     0 d,  0 h,  0 min,  0.594 sec
 * ratio c/w:     0.996 speedup

