 Entering Gaussian System
 *********************************************
 Gaussian 98:
 frequency output generated by the xtb code
 *********************************************
                         Standard orientation:
 --------------------------------------------------------------------
  Center     Atomic     Atomic              Coordinates (Angstroms)
  Number     Number      Type              X           Y           Z
 --------------------------------------------------------------------
    1          6             0        0.016460    0.747433    1.250386
    2          6             0       -0.654525    1.313662   -0.000000
    3          6             0        0.016452    0.747429   -1.250389
    4          6             0       -0.001043   -0.785054   -1.198984
    5          6             0       -0.001034   -0.785050    1.198987
    6          1             0       -0.498596    1.092891   -2.147694
    7          1             0       -1.710488    1.033080    0.000004
    8          1             0       -0.595098    2.404020   -0.000002
    9          1             0        1.052119    1.094844    1.298253
   10          1             0       -0.498581    1.092898    2.147693
   11          1             0       -1.036896   -1.138260   -1.213691
   12          1             0        0.515072   -1.202861   -2.066428
   13          1             0       -1.036888   -1.138256    1.213703
   14          1             0        0.515087   -1.202854    2.066429
   15          1             0        1.052110    1.094840   -1.298264
   16          7             0        0.621440   -1.322997    0.000000
   17          1             0        1.606031   -1.069194   -0.000004
 --------------------------------------------------------------------
     1 basis functions        1 primitive gaussians
     1 alpha electrons        1 beta electrons
 
 Harmonic frequencies (cm**-1), IR intensities (km*mol⁻¹),
 Raman scattering activities (A**4/amu), Raman depolarization ratios,
 reduced masses (AMU), force constants (mDyne/A) and normal coordinates:
                      1                      2                      3
                        a                      a                      a 
 Frequencies --   231.8557               248.1499               394.4989
 Red. masses --     6.1890                 7.0664                 6.1475
 Frc consts  --     0.0000                 0.0000                 0.0000
 IR Inten    --     0.0054                 4.6566                 5.5849
 Raman Activ --     0.0000                 0.0000                 0.0000
 Depolar     --     0.0000                 0.0000                 0.0000
 Atom AN      X      Y      Z        X      Y      Z        X      Y      Z
   1   6    -0.31   0.01   0.05    -0.19  -0.13   0.14     0.18  -0.04  -0.09
   2   6    -0.00  -0.00  -0.14     0.32   0.23  -0.00    -0.10  -0.21   0.00
   3   6     0.31  -0.01   0.05    -0.19  -0.13  -0.14     0.18  -0.04   0.09
   4   6    -0.33   0.02   0.06    -0.11  -0.12   0.08    -0.24  -0.00   0.14
   5   6     0.33  -0.02   0.06    -0.11  -0.12  -0.08    -0.24  -0.00  -0.14
   6   1     0.23   0.08  -0.03    -0.17  -0.08   0.01     0.18   0.07  -0.01
   7   1    -0.00  -0.00  -0.13     0.03   0.29  -0.00     0.01  -0.19   0.00
   8   1    -0.00  -0.00  -0.02     0.32   0.06  -0.00    -0.17  -0.05   0.00
   9   1    -0.14   0.12   0.15    -0.06  -0.05   0.19     0.09  -0.10  -0.16
  10   1    -0.23  -0.08  -0.03    -0.17  -0.08  -0.01     0.18   0.07   0.01
  11   1    -0.14   0.13   0.16    -0.02  -0.07   0.14    -0.09   0.07   0.22
  12   1    -0.25  -0.08  -0.03    -0.10  -0.06  -0.00    -0.23  -0.09  -0.01
  13   1     0.14  -0.13   0.16    -0.02  -0.07  -0.14    -0.09   0.07  -0.22
  14   1     0.25   0.08  -0.03    -0.10  -0.06   0.00    -0.23  -0.09   0.01
  15   1     0.14  -0.12   0.15    -0.06  -0.05  -0.19     0.09  -0.10   0.16
  16   7    -0.00  -0.00  -0.13     0.34   0.21  -0.00     0.26   0.29  -0.00
  17   1    -0.00  -0.00  -0.13     0.04   0.25  -0.00     0.01   0.31  -0.00
                      4                      5                      6
                        a                      a                      a 
 Frequencies --   426.6343               441.2165               563.0331
 Red. masses --     9.9077                 9.1071                 4.6200
 Frc consts  --     0.0000                 0.0000                 0.0000
 IR Inten    --     0.8135                 1.4863                 1.3146
 Raman Activ --     0.0000                 0.0000                 0.0000
 Depolar     --     0.0000                 0.0000                 0.0000
 Atom AN      X      Y      Z        X      Y      Z        X      Y      Z
   1   6     0.06  -0.02   0.31     0.01   0.30   0.28     0.03   0.14   0.15
   2   6     0.24  -0.41   0.00     0.00   0.00   0.20     0.09  -0.13   0.00
   3   6     0.06  -0.02  -0.31    -0.01  -0.30   0.28     0.03   0.14  -0.15
   4   6    -0.04   0.04  -0.25    -0.02  -0.30  -0.27     0.03   0.12   0.22
   5   6    -0.04   0.04   0.25     0.02   0.30  -0.27     0.03   0.12  -0.22
   6   1    -0.08   0.05  -0.01     0.09   0.03   0.07    -0.19  -0.09   0.02
   7   1     0.10  -0.24   0.00     0.00   0.00   0.10     0.08  -0.25   0.00
   8   1    -0.07  -0.11   0.00    -0.00  -0.00  -0.07    -0.20  -0.03   0.00
   9   1     0.01   0.00   0.17    -0.03   0.16   0.17    -0.04   0.15   0.24
  10   1    -0.08   0.05   0.01    -0.09  -0.03   0.07    -0.19  -0.09  -0.02
  11   1    -0.01   0.01  -0.12     0.02  -0.16  -0.15    -0.04   0.16   0.23
  12   1     0.06  -0.06   0.00     0.07   0.00  -0.07    -0.19  -0.06  -0.01
  13   1    -0.01   0.01   0.12    -0.02   0.16  -0.15    -0.04   0.16  -0.23
  14   1     0.06  -0.06  -0.00    -0.07  -0.00  -0.07    -0.19  -0.06   0.01
  15   1     0.01   0.00  -0.17     0.03  -0.16   0.17    -0.04   0.15  -0.24
  16   7    -0.23   0.40  -0.00    -0.00  -0.00  -0.18     0.07  -0.28   0.00
  17   1    -0.07   0.15  -0.00    -0.00  -0.00  -0.08     0.07  -0.30   0.00
                      7                      8                      9
                        a                      a                      a 
 Frequencies --   823.5486               833.8479               873.5164
 Red. masses --     4.4973                 4.6211                 9.6324
 Frc consts  --     0.0000                 0.0000                 0.0000
 IR Inten    --    62.1758                 0.0113                 6.8731
 Raman Activ --     0.0000                 0.0000                 0.0000
 Depolar     --     0.0000                 0.0000                 0.0000
 Atom AN      X      Y      Z        X      Y      Z        X      Y      Z
   1   6     0.06   0.11  -0.10    -0.24   0.11   0.12     0.02   0.18   0.36
   2   6     0.13   0.20  -0.00     0.00  -0.00   0.17    -0.23   0.22   0.00
   3   6     0.06   0.11   0.10     0.24  -0.11   0.12     0.02   0.18  -0.36
   4   6    -0.11  -0.07   0.01     0.18  -0.09  -0.11    -0.00  -0.17  -0.29
   5   6    -0.11  -0.07  -0.01    -0.18   0.09  -0.11    -0.00  -0.17   0.29
   6   1    -0.09  -0.04   0.06    -0.24  -0.15   0.16     0.14   0.13  -0.14
   7   1     0.12  -0.27  -0.00    -0.00   0.00  -0.07    -0.06   0.07   0.00
   8   1    -0.30   0.07   0.00     0.00  -0.00  -0.02    -0.06   0.06   0.00
   9   1     0.01   0.01   0.14     0.02  -0.16  -0.25     0.02   0.02  -0.05
  10   1    -0.09  -0.04  -0.06     0.24   0.15   0.16     0.14   0.13   0.14
  11   1    -0.00  -0.07  -0.15    -0.03   0.18   0.17    -0.02   0.02   0.05
  12   1     0.09   0.11   0.01    -0.19  -0.16  -0.11    -0.11  -0.16  -0.09
  13   1    -0.00  -0.07   0.15     0.03  -0.18   0.17    -0.02   0.02  -0.05
  14   1     0.09   0.11  -0.01     0.19   0.16  -0.11    -0.11  -0.16   0.09
  15   1     0.01   0.01  -0.14    -0.02   0.16  -0.25     0.02   0.02   0.05
  16   7     0.07  -0.38  -0.00    -0.00   0.00  -0.14     0.20  -0.27  -0.00
  17   1    -0.14   0.59  -0.00     0.00  -0.00   0.02     0.02   0.05   0.00
                     10                     11                     12
                        a                      a                      a 
 Frequencies --   909.8849               932.2031               947.9998
 Red. masses --     5.9288                 7.8030                 6.1909
 Frc consts  --     0.0000                 0.0000                 0.0000
 IR Inten    --    93.4324                 1.2768                 0.0850
 Raman Activ --     0.0000                 0.0000                 0.0000
 Depolar     --     0.0000                 0.0000                 0.0000
 Atom AN      X      Y      Z        X      Y      Z        X      Y      Z
   1   6    -0.00  -0.01  -0.09    -0.00  -0.27  -0.21     0.19  -0.10   0.11
   2   6    -0.03  -0.41   0.00     0.00   0.00   0.27    -0.30   0.16   0.00
   3   6    -0.00  -0.01   0.09     0.00   0.27  -0.21     0.19  -0.10  -0.11
   4   6     0.03   0.21  -0.14     0.04  -0.33  -0.14     0.15  -0.07   0.18
   5   6     0.03   0.21   0.14    -0.04   0.33  -0.14     0.15  -0.07  -0.18
   6   1    -0.06   0.02   0.07     0.07   0.23  -0.03     0.01  -0.29  -0.11
   7   1    -0.10   0.26   0.00     0.00  -0.00   0.11    -0.10   0.13   0.00
   8   1     0.38  -0.13  -0.00     0.00   0.00   0.29     0.01   0.04   0.00
   9   1    -0.06   0.17  -0.06    -0.02  -0.04   0.06    -0.02   0.16   0.05
  10   1    -0.06   0.02  -0.07    -0.07  -0.23  -0.03     0.01  -0.29   0.11
  11   1    -0.04   0.20  -0.00    -0.01  -0.04   0.09    -0.02   0.15  -0.02
  12   1    -0.09   0.02  -0.08    -0.07  -0.26  -0.00     0.05  -0.19   0.13
  13   1    -0.04   0.20   0.00     0.01   0.04   0.09    -0.02   0.15   0.02
  14   1    -0.09   0.02   0.08     0.07   0.26  -0.00     0.05  -0.19  -0.13
  15   1    -0.06   0.17   0.06     0.02   0.04   0.06    -0.02   0.16  -0.05
  16   7     0.07  -0.33   0.00     0.00   0.00   0.20    -0.30   0.13   0.00
  17   1    -0.08   0.35  -0.00     0.00  -0.00   0.09    -0.14   0.29   0.00
                     13                     14                     15
                        a                      a                      a 
 Frequencies --   959.8896              1007.4885              1066.1476
 Red. masses --     4.1482                 7.8481                 7.2069
 Frc consts  --     0.0000                 0.0000                 0.0000
 IR Inten    --     8.7208                14.0608                12.1315
 Raman Activ --     0.0000                 0.0000                 0.0000
 Depolar     --     0.0000                 0.0000                 0.0000
 Atom AN      X      Y      Z        X      Y      Z        X      Y      Z
   1   6    -0.21  -0.11   0.01    -0.10   0.00   0.33    -0.04   0.32  -0.03
   2   6    -0.00   0.00   0.06     0.02  -0.18   0.00     0.10  -0.22  -0.00
   3   6     0.21   0.11   0.01    -0.10   0.00  -0.33    -0.04   0.32   0.03
   4   6    -0.25  -0.12   0.04    -0.05   0.21   0.32     0.03  -0.29   0.22
   5   6     0.25   0.12   0.04    -0.05   0.21  -0.32     0.03  -0.29  -0.22
   6   1    -0.16   0.03   0.12     0.18   0.02  -0.20    -0.05   0.28   0.11
   7   1    -0.00  -0.00  -0.33    -0.02   0.04  -0.00    -0.01   0.08  -0.00
   8   1     0.00   0.00   0.22     0.09  -0.05  -0.00     0.14  -0.06   0.00
   9   1    -0.07   0.06  -0.29     0.04  -0.15  -0.07    -0.03   0.15  -0.09
  10   1     0.16  -0.03   0.12     0.18   0.02   0.20    -0.05   0.28  -0.11
  11   1    -0.02  -0.13  -0.25     0.05  -0.11  -0.05     0.01  -0.09   0.02
  12   1     0.18   0.07   0.11     0.14   0.17   0.12     0.09  -0.19   0.16
  13   1     0.02   0.13  -0.25     0.05  -0.11   0.05     0.01  -0.09  -0.02
  14   1    -0.18  -0.07   0.11     0.14   0.17  -0.12     0.09  -0.19  -0.16
  15   1     0.07  -0.06  -0.29     0.04  -0.15   0.07    -0.03   0.15   0.09
  16   7     0.00   0.00   0.08     0.02  -0.22   0.00    -0.12   0.04   0.00
  17   1    -0.00  -0.00  -0.19    -0.03   0.11  -0.00    -0.05   0.07   0.00
                     16                     17                     18
                        a                      a                      a 
 Frequencies --  1089.5251              1107.1902              1124.3035
 Red. masses --     1.5104                 5.3087                 8.6478
 Frc consts  --     0.0000                 0.0000                 0.0000
 IR Inten    --     3.7654                15.5068                 3.6847
 Raman Activ --     0.0000                 0.0000                 0.0000
 Depolar     --     0.0000                 0.0000                 0.0000
 Atom AN      X      Y      Z        X      Y      Z        X      Y      Z
   1   6    -0.08   0.01  -0.04    -0.04   0.00  -0.08     0.09  -0.27   0.24
   2   6     0.00  -0.00   0.08     0.00   0.00   0.17    -0.00  -0.00  -0.44
   3   6     0.08  -0.01  -0.04     0.04  -0.00  -0.08    -0.09   0.27   0.24
   4   6    -0.09  -0.05   0.03     0.11  -0.11   0.21     0.03  -0.29   0.10
   5   6     0.09   0.05   0.03    -0.11   0.11   0.21    -0.03   0.29   0.10
   6   1     0.05  -0.20  -0.10     0.12  -0.30  -0.20    -0.03  -0.02   0.03
   7   1     0.00   0.00   0.35     0.00   0.00   0.03    -0.00  -0.00  -0.23
   8   1     0.00  -0.00  -0.07     0.00   0.00   0.50    -0.00  -0.00  -0.14
   9   1     0.07  -0.28   0.12    -0.03   0.06  -0.01     0.08  -0.26   0.13
  10   1    -0.05   0.20  -0.10    -0.12   0.30  -0.20     0.03   0.02   0.03
  11   1    -0.10   0.23  -0.27     0.05  -0.12   0.08     0.01  -0.10   0.05
  12   1     0.12  -0.17   0.16    -0.01   0.12  -0.05    -0.03   0.04  -0.05
  13   1     0.10  -0.23  -0.27    -0.05   0.12   0.08    -0.01   0.10   0.05
  14   1    -0.12   0.17   0.16     0.01  -0.12  -0.05     0.03  -0.04  -0.05
  15   1    -0.07   0.28   0.12     0.03  -0.06  -0.01    -0.08   0.26   0.13
  16   7    -0.00   0.00   0.01    -0.00  -0.00  -0.42    -0.00  -0.00  -0.17
  17   1    -0.00  -0.00  -0.35    -0.00  -0.00  -0.10    -0.00  -0.00  -0.13
                     19                     20                     21
                        a                      a                      a 
 Frequencies --  1176.0912              1191.4815              1234.4537
 Red. masses --     7.2571                 6.6285                 3.6650
 Frc consts  --     0.0000                 0.0000                 0.0000
 IR Inten    --     8.0362                19.0556                12.3519
 Raman Activ --     0.0000                 0.0000                 0.0000
 Depolar     --     0.0000                 0.0000                 0.0000
 Atom AN      X      Y      Z        X      Y      Z        X      Y      Z
   1   6    -0.30  -0.13  -0.03    -0.01   0.03  -0.10    -0.13   0.10  -0.02
   2   6     0.27   0.14  -0.00     0.00   0.00   0.11     0.36  -0.05  -0.00
   3   6    -0.30  -0.13   0.03     0.01  -0.03  -0.10    -0.13   0.10   0.02
   4   6     0.30   0.10  -0.02     0.15  -0.01   0.27    -0.06  -0.14  -0.02
   5   6     0.30   0.10   0.02    -0.15   0.01   0.27    -0.06  -0.14   0.02
   6   1     0.07   0.13  -0.01    -0.06   0.29   0.13     0.15  -0.30  -0.22
   7   1     0.12  -0.18  -0.00     0.00  -0.00   0.08     0.12  -0.11  -0.00
   8   1    -0.16   0.04   0.00    -0.00  -0.00  -0.29    -0.02  -0.01   0.00
   9   1    -0.03  -0.13  -0.16    -0.04   0.10  -0.03    -0.11   0.30  -0.26
  10   1     0.07   0.13   0.01     0.06  -0.29   0.13     0.15  -0.30   0.22
  11   1     0.02   0.16   0.14     0.05  -0.04   0.05    -0.03   0.02  -0.05
  12   1    -0.06  -0.20   0.03     0.10  -0.18   0.18    -0.05   0.12  -0.10
  13   1     0.02   0.16  -0.14    -0.05   0.04   0.05    -0.03   0.02   0.05
  14   1    -0.06  -0.20  -0.03    -0.10   0.18   0.18    -0.05   0.12   0.10
  15   1    -0.03  -0.13   0.16     0.04  -0.10  -0.03    -0.11   0.30   0.26
  16   7    -0.21  -0.08   0.00    -0.00  -0.00  -0.49     0.02   0.08  -0.00
  17   1    -0.10   0.21   0.00    -0.00   0.00  -0.20     0.01  -0.04  -0.00
                     22                     23                     24
                        a                      a                      a 
 Frequencies --  1247.4662              1284.2866              1303.2336
 Red. masses --     3.4261                 4.0200                 3.3777
 Frc consts  --     0.0000                 0.0000                 0.0000
 IR Inten    --     0.0831                 2.0839                 3.7737
 Raman Activ --     0.0000                 0.0000                 0.0000
 Depolar     --     0.0000                 0.0000                 0.0000
 Atom AN      X      Y      Z        X      Y      Z        X      Y      Z
   1   6    -0.25  -0.08  -0.11     0.04   0.13  -0.02     0.04   0.04  -0.09
   2   6     0.00   0.00   0.10    -0.06  -0.09   0.00    -0.00  -0.00  -0.02
   3   6     0.25   0.08  -0.11     0.04   0.13   0.02    -0.04  -0.04  -0.09
   4   6    -0.13  -0.06   0.04     0.18  -0.06  -0.03     0.16  -0.19   0.15
   5   6     0.13   0.06   0.04     0.18  -0.06   0.03    -0.16   0.19   0.15
   6   1    -0.02  -0.01   0.01     0.02  -0.07  -0.04    -0.01   0.19   0.05
   7   1     0.00   0.00   0.51    -0.03   0.05  -0.00     0.00   0.00   0.08
   8   1    -0.00  -0.00  -0.37     0.06  -0.02   0.00     0.00  -0.00   0.03
   9   1    -0.02  -0.14  -0.07     0.05  -0.08   0.08    -0.02   0.10  -0.04
  10   1     0.02   0.01   0.01     0.02  -0.07   0.04     0.01  -0.19   0.05
  11   1     0.05  -0.26   0.08     0.13  -0.30   0.32    -0.08   0.31  -0.16
  12   1    -0.03   0.26  -0.12    -0.15   0.20  -0.23    -0.13   0.32  -0.24
  13   1    -0.05   0.26   0.08     0.13  -0.30  -0.32     0.08  -0.31  -0.16
  14   1     0.03  -0.26  -0.12    -0.15   0.20   0.23     0.13  -0.32  -0.24
  15   1     0.02   0.14  -0.07     0.05  -0.08  -0.08     0.02  -0.10  -0.04
  16   7     0.00   0.00   0.02    -0.36   0.03   0.00    -0.00   0.00   0.16
  17   1     0.00   0.00   0.13    -0.13   0.17   0.00    -0.00   0.00  -0.28
                     25                     26                     27
                        a                      a                      a 
 Frequencies --  1326.5664              1327.8970              1344.0540
 Red. masses --     4.2578                 4.2185                 4.5601
 Frc consts  --     0.0000                 0.0000                 0.0000
 IR Inten    --    37.6519                 5.7060                 2.8125
 Raman Activ --     0.0000                 0.0000                 0.0000
 Depolar     --     0.0000                 0.0000                 0.0000
 Atom AN      X      Y      Z        X      Y      Z        X      Y      Z
   1   6     0.03  -0.15   0.14    -0.09   0.30  -0.09    -0.13   0.28  -0.13
   2   6    -0.04   0.07  -0.00    -0.00  -0.00  -0.24    -0.02  -0.17   0.00
   3   6     0.03  -0.15  -0.14     0.09  -0.30  -0.09    -0.13   0.28   0.13
   4   6     0.11  -0.22   0.18    -0.05   0.06   0.03     0.09  -0.15   0.02
   5   6     0.11  -0.22  -0.18     0.05  -0.06   0.03     0.09  -0.15  -0.02
   6   1    -0.03   0.25   0.09    -0.11   0.23   0.17     0.06  -0.18  -0.11
   7   1    -0.02   0.03   0.00     0.00   0.00   0.08    -0.03   0.05  -0.00
   8   1    -0.07   0.02  -0.00     0.00   0.00   0.49     0.08  -0.04  -0.00
   9   1    -0.02   0.06  -0.02     0.09  -0.29   0.18     0.11  -0.37   0.17
  10   1    -0.03   0.25  -0.09     0.11  -0.23   0.17     0.06  -0.18   0.11
  11   1    -0.07   0.26  -0.13     0.02  -0.08   0.04    -0.08   0.28  -0.15
  12   1    -0.10   0.36  -0.23     0.03   0.06   0.01    -0.03   0.00  -0.04
  13   1    -0.07   0.26   0.13    -0.02   0.08   0.04    -0.08   0.28   0.15
  14   1    -0.10   0.36   0.23    -0.03  -0.06   0.01    -0.03   0.00   0.04
  15   1    -0.02   0.06   0.02    -0.09   0.29   0.18     0.11  -0.37  -0.17
  16   7    -0.06   0.10   0.00     0.00   0.00  -0.04     0.05   0.06  -0.00
  17   1    -0.02   0.03   0.00     0.00   0.00   0.05     0.02  -0.01   0.00
                     28                     29                     30
                        a                      a                      a 
 Frequencies --  1346.9861              1404.7209              1472.5966
 Red. masses --     4.8803                 3.2772                 1.8348
 Frc consts  --     0.0000                 0.0000                 0.0000
 IR Inten    --     0.9314                33.7391                 0.1550
 Raman Activ --     0.0000                 0.0000                 0.0000
 Depolar     --     0.0000                 0.0000                 0.0000
 Atom AN      X      Y      Z        X      Y      Z        X      Y      Z
   1   6    -0.01  -0.12   0.19    -0.01   0.00   0.03     0.04   0.05   0.05
   2   6    -0.00  -0.00  -0.50    -0.00  -0.00  -0.05     0.00  -0.00   0.03
   3   6     0.01   0.12   0.19     0.01  -0.00   0.03    -0.04  -0.05   0.05
   4   6     0.02  -0.01  -0.03     0.10   0.15  -0.12    -0.07  -0.11  -0.11
   5   6    -0.02   0.01  -0.03    -0.10  -0.15  -0.12     0.07   0.11  -0.11
   6   1    -0.05  -0.01   0.06     0.01  -0.01  -0.00     0.17   0.08  -0.07
   7   1     0.00   0.00   0.59     0.00   0.00   0.06    -0.00   0.00  -0.01
   8   1     0.00   0.00   0.27     0.00   0.00   0.04    -0.00   0.00  -0.01
   9   1    -0.08   0.23  -0.16    -0.01   0.02  -0.03     0.04  -0.08  -0.17
  10   1     0.05   0.01   0.06    -0.01   0.01  -0.00    -0.17  -0.08  -0.07
  11   1    -0.02   0.06  -0.00     0.11  -0.21   0.21    -0.08   0.22   0.37
  12   1     0.04  -0.10   0.06    -0.03  -0.04  -0.03     0.37   0.20   0.12
  13   1     0.02  -0.06  -0.00    -0.11   0.21   0.21     0.08  -0.22   0.37
  14   1    -0.04   0.10   0.06     0.03   0.04  -0.03    -0.37  -0.20   0.12
  15   1     0.08  -0.23  -0.16     0.01  -0.02  -0.03    -0.04   0.08  -0.17
  16   7    -0.00  -0.00  -0.05     0.00   0.00   0.30    -0.00  -0.00  -0.03
  17   1     0.00   0.00   0.08    -0.00  -0.00  -0.77    -0.00  -0.00  -0.02
                     31                     32                     33
                        a                      a                      a 
 Frequencies --  1479.1595              1482.2623              1483.0285
 Red. masses --     1.9198                 1.9803                 1.8768
 Frc consts  --     0.0000                 0.0000                 0.0000
 IR Inten    --     0.1770                 0.6902                 0.3998
 Raman Activ --     0.0000                 0.0000                 0.0000
 Depolar     --     0.0000                 0.0000                 0.0000
 Atom AN      X      Y      Z        X      Y      Z        X      Y      Z
   1   6    -0.01  -0.00  -0.02    -0.07  -0.11  -0.14     0.07   0.07   0.12
   2   6    -0.13   0.11   0.00     0.00  -0.00   0.02     0.10  -0.06  -0.00
   3   6    -0.01  -0.00   0.02     0.07   0.11  -0.14     0.07   0.07  -0.12
   4   6     0.07   0.07   0.13    -0.02  -0.05  -0.06     0.04   0.05   0.06
   5   6     0.07   0.07  -0.13     0.02   0.05  -0.06     0.04   0.05  -0.06
   6   1     0.05   0.04  -0.01    -0.37  -0.19   0.13    -0.32  -0.15   0.12
   7   1     0.10  -0.38   0.00    -0.00   0.00  -0.03    -0.07   0.28   0.00
   8   1     0.40  -0.02  -0.00    -0.00   0.00  -0.03    -0.29   0.02   0.00
   9   1    -0.01   0.03   0.05    -0.09   0.20   0.38     0.08  -0.16  -0.34
  10   1     0.05   0.04   0.01     0.36   0.19   0.13    -0.32  -0.15  -0.12
  11   1     0.07  -0.17  -0.33    -0.04   0.10   0.17     0.04  -0.10  -0.19
  12   1    -0.33  -0.16  -0.11     0.16   0.09   0.04    -0.18  -0.09  -0.07
  13   1     0.07  -0.17   0.33     0.04  -0.10   0.17     0.04  -0.10   0.19
  14   1    -0.33  -0.16   0.11    -0.16  -0.09   0.04    -0.18  -0.09   0.07
  15   1    -0.01   0.03  -0.05     0.09  -0.20   0.38     0.08  -0.16   0.34
  16   7     0.00   0.02  -0.00     0.00   0.00   0.02     0.00   0.00  -0.00
  17   1     0.00  -0.00   0.00     0.00   0.00  -0.04     0.00   0.01   0.00
                     34                     35                     36
                        a                      a                      a 
 Frequencies --  1497.8001              2940.4314              2942.6113
 Red. masses --     2.0251                 1.8458                 1.8114
 Frc consts  --     0.0000                 0.0000                 0.0000
 IR Inten    --     0.2079                 3.2937                86.5579
 Raman Activ --     0.0000                 0.0000                 0.0000
 Depolar     --     0.0000                 0.0000                 0.0000
 Atom AN      X      Y      Z        X      Y      Z        X      Y      Z
   1   6     0.04   0.06   0.11    -0.05  -0.01   0.01     0.04   0.01  -0.01
   2   6    -0.15   0.14   0.00     0.00   0.00  -0.00     0.01   0.00  -0.00
   3   6     0.04   0.06  -0.11     0.05   0.01   0.01     0.04   0.01   0.01
   4   6    -0.03  -0.06  -0.05    -0.18  -0.03   0.05    -0.18  -0.04   0.04
   5   6    -0.03  -0.06   0.05     0.18   0.03   0.05    -0.18  -0.04  -0.04
   6   1    -0.25  -0.11   0.09    -0.02   0.02  -0.05    -0.02   0.02  -0.05
   7   1     0.11  -0.45   0.00    -0.00  -0.00  -0.00    -0.01  -0.01   0.00
   8   1     0.45  -0.01  -0.00     0.00  -0.00   0.00     0.00  -0.00  -0.00
   9   1     0.05  -0.12  -0.26     0.17   0.06   0.01    -0.15  -0.05  -0.01
  10   1    -0.25  -0.11  -0.09     0.02  -0.02  -0.05    -0.02   0.02   0.05
  11   1    -0.04   0.11   0.16     0.59   0.20   0.01     0.60   0.20   0.01
  12   1     0.16   0.10   0.04     0.08  -0.08  -0.16     0.06  -0.07  -0.14
  13   1    -0.04   0.11  -0.16    -0.59  -0.20   0.01     0.60   0.20  -0.01
  14   1     0.16   0.10  -0.04    -0.08   0.08  -0.16     0.06  -0.07   0.14
  15   1     0.05  -0.12   0.26    -0.17  -0.06   0.01    -0.15  -0.05   0.01
  16   7    -0.00  -0.01  -0.00    -0.00   0.00  -0.00    -0.01   0.00   0.00
  17   1    -0.00   0.01   0.00    -0.00  -0.00  -0.01    -0.02  -0.00   0.00
                     37                     38                     39
                        a                      a                      a 
 Frequencies --  2952.7830              2956.0422              2962.9500
 Red. masses --     1.8733                 1.8828                 1.8240
 Frc consts  --     0.0000                 0.0000                 0.0000
 IR Inten    --    62.5776                 2.8978               277.4716
 Raman Activ --     0.0000                 0.0000                 0.0000
 Depolar     --     0.0000                 0.0000                 0.0000
 Atom AN      X      Y      Z        X      Y      Z        X      Y      Z
   1   6    -0.13  -0.02   0.02    -0.18  -0.04   0.03     0.11   0.03  -0.02
   2   6     0.12   0.16  -0.00    -0.00  -0.00   0.00     0.09   0.16  -0.00
   3   6    -0.13  -0.02  -0.02     0.18   0.04   0.03     0.11   0.03   0.02
   4   6    -0.04  -0.01   0.01     0.05   0.02  -0.00     0.01   0.05   0.07
   5   6    -0.04  -0.01  -0.01    -0.05  -0.02  -0.00     0.01   0.05  -0.07
   6   1     0.03  -0.04   0.09    -0.06   0.06  -0.15    -0.04   0.04  -0.09
   7   1    -0.46  -0.11   0.00     0.00   0.00  -0.00    -0.27  -0.06   0.00
   8   1    -0.02  -0.48   0.00     0.00   0.00  -0.00    -0.03  -0.52   0.00
   9   1     0.43   0.14   0.02     0.59   0.20   0.02    -0.35  -0.12  -0.02
  10   1     0.03  -0.04  -0.09     0.06  -0.06  -0.15    -0.04   0.04   0.09
  11   1     0.11   0.03   0.00    -0.18  -0.06   0.00    -0.19  -0.06   0.01
  12   1     0.01  -0.01  -0.02    -0.00   0.01   0.01     0.16  -0.11  -0.25
  13   1     0.11   0.03  -0.00     0.18   0.06   0.00    -0.19  -0.06  -0.01
  14   1     0.01  -0.01   0.02     0.00  -0.01   0.01     0.16  -0.11   0.25
  15   1     0.43   0.14  -0.02    -0.59  -0.20   0.02    -0.35  -0.12   0.02
  16   7    -0.00   0.00   0.00    -0.00   0.00   0.00     0.00  -0.00  -0.00
  17   1    -0.00  -0.00   0.00    -0.00  -0.00  -0.00     0.01   0.00  -0.00
                     40                     41                     42
                        a                      a                      a 
 Frequencies --  2964.3606              2966.2306              2973.5980
 Red. masses --     1.5880                 1.7361                 1.5067
 Frc consts  --     0.0000                 0.0000                 0.0000
 IR Inten    --    99.3762                85.8243                90.1892
 Raman Activ --     0.0000                 0.0000                 0.0000
 Depolar     --     0.0000                 0.0000                 0.0000
 Atom AN      X      Y      Z        X      Y      Z        X      Y      Z
   1   6    -0.02   0.01   0.02    -0.08   0.00   0.04     0.02   0.03   0.06
   2   6    -0.00  -0.00   0.00    -0.05  -0.09   0.00     0.18  -0.07  -0.00
   3   6     0.02  -0.01   0.02    -0.08   0.00  -0.04     0.02   0.03  -0.06
   4   6     0.04  -0.08  -0.13    -0.05   0.06   0.11     0.01  -0.00  -0.02
   5   6    -0.04   0.08  -0.13    -0.05   0.06  -0.11     0.01  -0.00   0.02
   6   1    -0.06   0.04  -0.10     0.10  -0.07   0.18     0.12  -0.07   0.19
   7   1     0.00   0.00   0.00     0.15   0.03  -0.00    -0.70  -0.22   0.00
   8   1     0.00   0.00  -0.00     0.02   0.30  -0.00     0.06   0.48  -0.00
   9   1     0.00   0.00   0.00     0.17   0.06   0.01    -0.17  -0.05   0.00
  10   1     0.06  -0.04  -0.10     0.10  -0.07  -0.18     0.12  -0.07  -0.19
  11   1     0.20   0.05  -0.02    -0.09  -0.02   0.02    -0.01  -0.00  -0.00
  12   1    -0.32   0.24   0.51     0.28  -0.21  -0.45    -0.03   0.03   0.05
  13   1    -0.20  -0.05  -0.02    -0.09  -0.02  -0.02    -0.01  -0.00   0.00
  14   1     0.32  -0.24   0.51     0.28  -0.21   0.45    -0.03   0.03  -0.05
  15   1    -0.00  -0.00   0.00     0.17   0.06  -0.01    -0.17  -0.05  -0.00
  16   7    -0.00  -0.00  -0.02     0.00   0.00   0.00     0.00  -0.00  -0.00
  17   1    -0.00  -0.00  -0.00    -0.00  -0.00   0.00     0.00   0.00  -0.00
                     43                     44                     45
                        a                      a                      a 
 Frequencies --  2983.8320              2987.9614              3349.3533
 Red. masses --     1.6024                 1.5863                 1.8287
 Frc consts  --     0.0000                 0.0000                 0.0000
 IR Inten    --   198.9481                60.6152                18.0260
 Raman Activ --     0.0000                 0.0000                 0.0000
 Depolar     --     0.0000                 0.0000                 0.0000
 Atom AN      X      Y      Z        X      Y      Z        X      Y      Z
   1   6    -0.04   0.07   0.14    -0.03   0.06   0.13    -0.00   0.00   0.00
   2   6     0.00  -0.00   0.01    -0.06   0.07   0.00     0.00   0.00  -0.00
   3   6     0.04  -0.07   0.14    -0.03   0.06  -0.13    -0.00   0.00  -0.00
   4   6    -0.00   0.01   0.03     0.00  -0.01  -0.03     0.01   0.01  -0.00
   5   6     0.00  -0.01   0.03     0.00  -0.01   0.03     0.01   0.01   0.00
   6   1    -0.32   0.20  -0.53     0.29  -0.18   0.47    -0.00   0.00  -0.00
   7   1    -0.00  -0.00   0.00     0.26   0.08  -0.00    -0.00   0.00   0.00
   8   1     0.00   0.00   0.00    -0.03  -0.32   0.00    -0.00  -0.00   0.00
   9   1    -0.20  -0.05   0.01    -0.17  -0.05   0.01    -0.00  -0.00  -0.00
  10   1     0.32  -0.20  -0.53     0.29  -0.18  -0.47    -0.00   0.00   0.00
  11   1    -0.04  -0.01   0.00     0.05   0.01  -0.00    -0.01  -0.00   0.00
  12   1     0.05  -0.04  -0.09    -0.06   0.04   0.09    -0.00  -0.00   0.00
  13   1     0.04   0.01   0.00     0.05   0.01   0.00    -0.01  -0.00  -0.00
  14   1    -0.05   0.04  -0.09    -0.06   0.04  -0.09    -0.00  -0.00  -0.00
  15   1     0.20   0.05   0.01    -0.17  -0.05  -0.01    -0.00  -0.00   0.00
  16   7     0.00  -0.00   0.00     0.00   0.00   0.00     0.25   0.05  -0.00
  17   1     0.00   0.00   0.00    -0.00  -0.00   0.00    -0.94  -0.22   0.00
