      -----------------------------------------------------------      
     |                   =====================                   |     
     |                           x T B                           |     
     |                   =====================                   |     
     |                         S. Grimme                         |     
     |          Mulliken Center for Theoretical Chemistry        |     
     |                    University of Bonn                     |     
      -----------------------------------------------------------      

   * xtb version 6.4.1 (afa7bdf) compiled by 'ehlert@majestix' on 2021-06-10

   xtb is free software: you can redistribute it and/or modify it under
   the terms of the GNU Lesser General Public License as published by
   the Free Software Foundation, either version 3 of the License, or
   (at your option) any later version.
   
   xtb is distributed in the hope that it will be useful,
   but WITHOUT ANY WARRANTY; without even the implied warranty of
   MERCHANTABILITY or FITNESS FOR A PARTICULAR PURPOSE.  See the
   GNU Lesser General Public License for more details.
   
   Cite this work as:
   * C. Bannwarth, E. Caldeweyher, S. Ehlert, A. Hansen, P. Pracht,
     J. Seibert, S. Spicher, S. Grimme, WIREs Comput. Mol. Sci., 2020, 11,
     e01493. DOI: 10.1002/wcms.1493
   
   for GFN2-xTB:
   * C. Bannwarth, S. Ehlert and S. Grimme., J. Chem. Theory Comput., 2019,
     15, 1652-1671. DOI: 10.1021/acs.jctc.8b01176
   for GFN1-xTB:
   * S. Grimme, C. Bannwarth, P. Shushkov, J. Chem. Theory Comput., 2017,
     13, 1989-2009. DOI: 10.1021/acs.jctc.7b00118
   for GFN0-xTB:
   * P. Pracht, E. Caldeweyher, S. Ehlert, S. Grimme, ChemRxiv, 2019, preprint.
     DOI: 10.26434/chemrxiv.8326202.v1
   for GFN-FF:
   * S. Spicher and S. Grimme, Angew. Chem. Int. Ed., 2020, 59, 15665-15673.
     DOI: 10.1002/anie.202004239
   
   for DFT-D4:
   * E. Caldeweyher, C. Bannwarth and S. Grimme, J. Chem. Phys., 2017,
     147, 034112. DOI: 10.1063/1.4993215
   * E. Caldeweyher, S. Ehlert, A. Hansen, H. Neugebauer, S. Spicher,
     C. Bannwarth and S. Grimme, J. Chem. Phys., 2019, 150, 154122.
     DOI: 10.1063/1.5090222
   * E. Caldeweyher, J.-M. Mewes, S. Ehlert and S. Grimme, Phys. Chem. Chem. Phys.
     2020, 22, 8499-8512. DOI: 10.1039/D0CP00502A
   
   for sTDA-xTB:
   * S. Grimme and C. Bannwarth, J. Chem. Phys., 2016, 145, 054103.
     DOI: 10.1063/1.4959605
   
   in the mass-spec context:
   * V. Asgeirsson, C. Bauer and S. Grimme, Chem. Sci., 2017, 8, 4879.
     DOI: 10.1039/c7sc00601b
   * J. Koopman and S. Grimme, ACS Omega 2019, 4, 12, 15120-15133.
     DOI: 10.1021/acsomega.9b02011
   
   for metadynamics refer to:
   * S. Grimme, J. Chem. Theory Comput., 2019, 155, 2847-2862
     DOI: 10.1021/acs.jctc.9b00143
   
   for SPH calculations refer to:
   * S. Spicher and S. Grimme, J. Chem. Theory Comput., 2021, 17, 1701-1714
     DOI: 10.1021/acs.jctc.0c01306
   
   with help from (in alphabetical order)
   P. Atkinson, C. Bannwarth, F. Bohle, G. Brandenburg, E. Caldeweyher
   M. Checinski, S. Dohm, S. Ehlert, S. Ehrlich, I. Gerasimov, J. Koopman
   C. Lavigne, S. Lehtola, F. März, M. Müller, F. Musil, H. Neugebauer
   J. Pisarek, C. Plett, P. Pracht, J. Seibert, P. Shushkov, S. Spicher
   M. Stahn, M. Steiner, T. Strunk, J. Stückrath, T. Rose, and J. Unsleber
   
 * started run on 2021/11/15 at 09:36:10.781     

           -------------------------------------------------
          |                Calculation Setup                |
           -------------------------------------------------

          program call               : xtb 07_4-ethylphenol.xyz --gfn2 --chrg 0 --uhf 0 --alpb water --ohess -P 1
          coordinate file            : 07_4-ethylphenol.xyz
          omp threads                :                     1
          number of atoms            :                    19
          number of electrons        :                    48
          charge                     :                     0
          spin                       :                   0.0
          first test random number   :      0.83641408807374

   ID    Z sym.   atoms
    1    6 C      1-6, 13, 16
    2    1 H      7, 8, 10-12, 14, 15, 17-19
    3    8 O      9

           -------------------------------------------------
          |                 G F N 2 - x T B                 |
           -------------------------------------------------

        Reference                      10.1021/acs.jctc.8b01176
      * Hamiltonian:
        H0-scaling (s, p, d)           1.850000    2.230000    2.230000
        zeta-weighting                 0.500000
      * Dispersion:
        s8                             2.700000
        a1                             0.520000
        a2                             5.000000
        s9                             5.000000
      * Repulsion:
        kExp                           1.500000    1.000000
        rExp                           1.000000
      * Coulomb:
        alpha                          2.000000
        third order                    shell-resolved
        anisotropic                    true
        a3                             3.000000
        a5                             4.000000
        cn-shift                       1.200000
        cn-exp                         4.000000
        max-rad                        5.000000

      * Solvation model:               ALPB
        Solvent                        water
        Parameter file                 internal GFN2-xTB/ALPB
        Dielectric constant                8.0200E+01
        Reference state                gsolv [1 M gas/solution]
        Free energy shift                  1.0808E-03 Eh       6.7819E-01 kcal/mol
        Temperature                        2.9815E+02 K
        Density                            1.0000E+00 kg/L
        Solvent mass                       1.8000E+01 g/mol
        Interaction kernel             P16
        Born radius scaling (c1)           1.4744E+00
        Born radii integrator          GBOBC
        Born offset                        0.0000E+00 a0       0.0000E+00 AA
        H-bond correction              true
        Ion screening                  false
        Surface tension                    1.0000E-05 Eh       1.5569E+01 dyn/cm
        Grid points                               230 per atom

          ...................................................
          :                      SETUP                      :
          :.................................................:
          :  # basis functions                  46          :
          :  # atomic orbitals                  46          :
          :  # shells                           28          :
          :  # electrons                        48          :
          :  max. iterations                   250          :
          :  Hamiltonian                  GFN2-xTB          :
          :  restarted?                      false          :
          :  GBSA solvation                   true          :
          :  PC potential                    false          :
          :  electronic temp.          300.0000000     K    :
          :  accuracy                    1.0000000          :
          :  -> integral cutoff          0.2500000E+02      :
          :  -> integral neglect         0.1000000E-07      :
          :  -> SCF convergence          0.1000000E-05 Eh   :
          :  -> wf. convergence          0.1000000E-03 e    :
          :  Broyden damping             0.4000000          :
          ...................................................

 iter      E             dE          RMSdq      gap      omega  full diag
   1    -26.6776125 -0.266776E+02  0.418E+00    4.14       0.0  T
   2    -26.6912282 -0.136157E-01  0.243E+00    4.21       1.0  T
   3    -26.6886006  0.262757E-02  0.733E-01    4.05       1.0  T
   4    -26.6929073 -0.430663E-02  0.213E-01    4.14       1.0  T
   5    -26.6931614 -0.254095E-03  0.752E-02    4.16       1.0  T
   6    -26.6931755 -0.141076E-04  0.409E-02    4.15       1.0  T
   7    -26.6931808 -0.532034E-05  0.130E-02    4.16       1.8  T
   8    -26.6931813 -0.496817E-06  0.484E-03    4.16       4.7  T
   9    -26.6931813 -0.477947E-07  0.304E-03    4.16       7.5  T
  10    -26.6931814 -0.445376E-07  0.756E-04    4.16      30.3  T
  11    -26.6931814 -0.202136E-08  0.375E-04    4.16      61.2  T

   *** convergence criteria satisfied after 11 iterations ***

         #    Occupation            Energy/Eh            Energy/eV
      -------------------------------------------------------------
         1        2.0000           -0.7042306             -19.1631
       ...           ...                  ...                  ...
        18        2.0000           -0.4579214             -12.4607
        19        2.0000           -0.4426678             -12.0456
        20        2.0000           -0.4316182             -11.7449
        21        2.0000           -0.4246420             -11.5551
        22        2.0000           -0.4157478             -11.3131
        23        2.0000           -0.3997130             -10.8767
        24        2.0000           -0.3749315             -10.2024 (HOMO)
        25                         -0.2221862              -6.0460 (LUMO)
        26                         -0.2115303              -5.7560
        27                         -0.0922143              -2.5093
        28                          0.0652243               1.7748
        29                          0.0898934               2.4461
       ...                                ...                  ...
        46                          0.6378047              17.3555
      -------------------------------------------------------------
                  HL-Gap            0.1527453 Eh            4.1564 eV
             Fermi-level           -0.2985588 Eh           -8.1242 eV

 SCC (total)                   0 d,  0 h,  0 min,  0.010 sec
 SCC setup                      ...        0 min,  0.000 sec (  4.488%)
 Dispersion                     ...        0 min,  0.000 sec (  1.281%)
 classical contributions        ...        0 min,  0.000 sec (  0.228%)
 integral evaluation            ...        0 min,  0.002 sec ( 15.893%)
 iterations                     ...        0 min,  0.005 sec ( 44.429%)
 molecular gradient             ...        0 min,  0.003 sec ( 32.051%)
 printout                       ...        0 min,  0.000 sec (  1.436%)

         :::::::::::::::::::::::::::::::::::::::::::::::::::::
         ::                     SUMMARY                     ::
         :::::::::::::::::::::::::::::::::::::::::::::::::::::
         :: total energy             -26.294705883531 Eh    ::
         :: total w/o Gsasa/hb       -26.289842064453 Eh    ::
         :: gradient norm              0.021170474265 Eh/a0 ::
         :: HOMO-LUMO gap              4.156411464210 eV    ::
         ::.................................................::
         :: SCC energy               -26.693181378534 Eh    ::
         :: -> isotropic ES            0.030546693452 Eh    ::
         :: -> anisotropic ES          0.004927728670 Eh    ::
         :: -> anisotropic XC          0.012380224751 Eh    ::
         :: -> dispersion             -0.014219040965 Eh    ::
         :: -> Gsolv                  -0.009009735156 Eh    ::
         ::    -> Gelec               -0.004145916078 Eh    ::
         ::    -> Gsasa                0.000007667855 Eh    ::
         ::    -> Ghb                 -0.005952246631 Eh    ::
         ::    -> Gshift               0.001080759698 Eh    ::
         :: repulsion energy           0.398447365027 Eh    ::
         :: add. restraining           0.000000000000 Eh    ::
         :: total charge               0.000000000000 e     ::
         :::::::::::::::::::::::::::::::::::::::::::::::::::::

      ----------------------------------------------------------- 
     |                   =====================                   |
     |                        A N C O P T                        |
     |                   =====================                   |
     |               Approximate Normal Coordinate               |
     |                Rational Function Optimizer                |
      ----------------------------------------------------------- 

          ...................................................
          :                      SETUP                      :
          :.................................................:
          :   optimization level            normal          :
          :   max. optcycles                   200          :
          :   ANC micro-cycles                  20          :
          :   degrees of freedom                51          :
          :.................................................:
          :   RF solver                   davidson          :
          :   write xtbopt.log                true          :
          :   linear?                        false          :
          :   energy convergence         0.5000000E-05 Eh   :
          :   grad. convergence          0.1000000E-02 Eh/α :
          :   maximium RF displ.         1.0000000          :
          :   Hlow (freq-cutoff)         0.1000000E-01      :
          :   Hmax (freq-cutoff)         5.0000000          :
          :   S6 in model hess.         20.0000000          :
          ...................................................

generating ANC from model Hessian ...
Using Lindh-Hessian (1995)
 Shifting diagonal of input Hessian by   7.981897033502749E-003
 Lowest  eigenvalues of input Hessian
    0.000000    0.000000    0.000000    0.000000    0.000000    0.000000
    0.010000    0.010726    0.014652    0.016083    0.022203    0.023957
    0.026208    0.032885    0.043935    0.048432    0.050026    0.052632
 Highest eigenvalues
    1.431205    1.563418    1.703884    1.852125    1.964116    2.047503
 

........................................................................
.............................. CYCLE    1 ..............................
........................................................................
   1    -26.6931814 -0.266932E+02  0.111E-04    4.16       0.0  T
   2    -26.6931814 -0.184315E-10  0.698E-05    4.16     328.9  T
   3    -26.6931814 -0.703437E-12  0.352E-05    4.16     651.2  T
     SCC iter.                  ...        0 min,  0.002 sec
     gradient                   ...        0 min,  0.003 sec
 * total energy  :   -26.2947059 Eh     change       -0.4346070E-09 Eh
   gradient norm :     0.0211717 Eh/α   predicted     0.0000000E+00 (-100.00%)
   displ. norm   :     0.1538190 α      lambda       -0.1793129E-02
   maximum displ.:     0.0786612 α      in ANC's #4, #12, #8, ...

........................................................................
.............................. CYCLE    2 ..............................
........................................................................
   1    -26.7101286 -0.267101E+02  0.123E-01    4.21       0.0  T
   2    -26.7101332 -0.453656E-05  0.720E-02    4.21       1.0  T
   3    -26.7101304  0.275576E-05  0.185E-02    4.21       1.2  T
   4    -26.7101342 -0.381551E-05  0.249E-03    4.21       9.2  T
   5    -26.7101342 -0.153889E-07  0.155E-03    4.21      14.8  T
   6    -26.7101342 -0.360064E-08  0.819E-04    4.21      28.0  T
   7    -26.7101342 -0.243457E-08  0.195E-04    4.21     117.5  T
     SCC iter.                  ...        0 min,  0.003 sec
     gradient                   ...        0 min,  0.004 sec
 * total energy  :   -26.2958074 Eh     change       -0.1101469E-02 Eh
   gradient norm :     0.0074934 Eh/α   predicted    -0.9177845E-03 ( -16.68%)
   displ. norm   :     0.0851618 α      lambda       -0.2048772E-03
   maximum displ.:     0.0619693 α      in ANC's #4, #1, #6, ...

........................................................................
.............................. CYCLE    3 ..............................
........................................................................
   1    -26.7152555 -0.267153E+02  0.516E-02    4.22       0.0  T
   2    -26.7152573 -0.174798E-05  0.295E-02    4.22       1.0  T
   3    -26.7152566  0.700787E-06  0.126E-02    4.22       1.8  T
   4    -26.7152577 -0.115991E-05  0.157E-03    4.22      14.6  T
   5    -26.7152577 -0.153725E-07  0.799E-04    4.22      28.7  T
   6    -26.7152577 -0.227740E-08  0.436E-04    4.22      52.6  T
     SCC iter.                  ...        0 min,  0.004 sec
     gradient                   ...        0 min,  0.005 sec
 * total energy  :   -26.2959278 Eh     change       -0.1204485E-03 Eh
   gradient norm :     0.0028610 Eh/α   predicted    -0.1041959E-03 ( -13.49%)
   displ. norm   :     0.0511472 α      lambda       -0.3446581E-04
   maximum displ.:     0.0352865 α      in ANC's #1, #4, #9, ...

........................................................................
.............................. CYCLE    4 ..............................
........................................................................
   1    -26.7153649 -0.267154E+02  0.207E-02    4.21       0.0  T
   2    -26.7153653 -0.404405E-06  0.119E-02    4.22       1.9  T
   3    -26.7153652  0.997450E-07  0.578E-03    4.22       4.0  T
   4    -26.7153654 -0.216441E-06  0.746E-04    4.22      30.8  T
   5    -26.7153654 -0.392893E-08  0.356E-04    4.22      64.4  T
     SCC iter.                  ...        0 min,  0.003 sec
     gradient                   ...        0 min,  0.003 sec
 * total energy  :   -26.2959523 Eh     change       -0.2452816E-04 Eh
   gradient norm :     0.0010653 Eh/α   predicted    -0.1727975E-04 ( -29.55%)
   displ. norm   :     0.0672868 α      lambda       -0.1625814E-04
   maximum displ.:     0.0544272 α      in ANC's #1, #4, #9, ...

........................................................................
.............................. CYCLE    5 ..............................
........................................................................
   1    -26.7143928 -0.267144E+02  0.268E-02    4.21       0.0  T
   2    -26.7143932 -0.337131E-06  0.158E-02    4.21       1.4  T
   3    -26.7143929  0.249466E-06  0.595E-03    4.21       3.9  T
   4    -26.7143933 -0.356002E-06  0.738E-04    4.21      31.1  T
   5    -26.7143933 -0.325086E-08  0.373E-04    4.21      61.5  T
     SCC iter.                  ...        0 min,  0.002 sec
     gradient                   ...        0 min,  0.003 sec
 * total energy  :   -26.2959636 Eh     change       -0.1131943E-04 Eh
   gradient norm :     0.0012184 Eh/α   predicted    -0.8153762E-05 ( -27.97%)
   displ. norm   :     0.0160304 α      lambda       -0.2855620E-05
   maximum displ.:     0.0135153 α      in ANC's #1, #4, #6, ...

........................................................................
.............................. CYCLE    6 ..............................
........................................................................
   1    -26.7144935 -0.267145E+02  0.640E-03    4.21       0.0  T
   2    -26.7144935 -0.406844E-07  0.371E-03    4.21       6.2  T
   3    -26.7144935  0.948328E-08  0.187E-03    4.21      12.3  T
   4    -26.7144936 -0.218016E-07  0.264E-04    4.21      86.8  T
   5    -26.7144936 -0.439432E-09  0.120E-04    4.21     191.6  T
     SCC iter.                  ...        0 min,  0.002 sec
     gradient                   ...        0 min,  0.003 sec
 * total energy  :   -26.2959671 Eh     change       -0.3442249E-05 Eh
   gradient norm :     0.0005032 Eh/α   predicted    -0.1460690E-05 ( -57.57%)
   displ. norm   :     0.0222261 α      lambda       -0.2361700E-05
   maximum displ.:     0.0193237 α      in ANC's #1, #4, #8, ...

   *** GEOMETRY OPTIMIZATION CONVERGED AFTER 6 ITERATIONS ***

------------------------------------------------------------------------
 total energy gain   :        -0.0012612 Eh       -0.7914 kcal/mol
 total RMSD          :         0.0717683 a0        0.0380 Å
 total power (kW/mol):        -0.5518834 (step)  -58.0656 (real)
------------------------------------------------------------------------

 ANCopt (total)                0 d,  0 h,  0 min,  0.057 sec
 optimizer setup                ...        0 min,  0.000 sec (  0.316%)
 model hessian                  ...        0 min,  0.003 sec (  5.035%)
 ANC generation                 ...        0 min,  0.000 sec (  0.631%)
 coordinate transformation      ...        0 min,  0.000 sec (  0.078%)
 single point calculation       ...        0 min,  0.052 sec ( 90.545%)
 optimization log               ...        0 min,  0.001 sec (  2.102%)
 hessian update                 ...        0 min,  0.000 sec (  0.073%)
 rational function              ...        0 min,  0.000 sec (  0.586%)

================
 final structure:
================
19
 xtb: 6.4.1 (afa7bdf)
C        -0.91364442149174   -0.01163675634374   -0.35572278304484
C        -0.19677625335360   -1.19393058319120   -0.23510566759400
C         1.16937359200325   -1.18391932931557   -0.01824882630577
C         1.84732524504269    0.02414458632807    0.08569009672494
C         1.13788884886073    1.21596422380463   -0.02722371474063
C        -0.22520335758369    1.19077247858322   -0.24421763518225
H         1.67533343329782    2.14784196093785    0.05613005719382
H        -0.76351733361139    2.12315785468643   -0.33210731600355
O         3.19243493265168    0.09330460578122    0.29408380406389
H         3.57106418048712   -0.79617820706957    0.35736185363227
H         1.70863986849970   -2.11662929731146    0.06863370405194
H        -0.71174153471282   -2.14028823001040   -0.31519565342886
C        -2.40308065385601   -0.02905128283932   -0.55441458497752
H        -2.70500075392574    0.83677115667170   -1.14654969468741
H        -2.69210244616567   -0.93151568522337   -1.09601753054468
C        -3.12936388642679    0.00458594688551    0.79250810301467
H        -4.20618408509022   -0.00560315787609    0.64364869763790
H        -2.85176969915851   -0.85886897841266    1.39263650746997
H        -2.86159167546680    0.90341469391474    1.34307658272012
 
 Bond Distances (Angstroems)
 ---------------------------
C1-C2=1.3879         C1-C6=1.3900         C1-C13=1.5027        C2-C1=1.3879         C2-C3=1.3833         C2-H12=1.0804        
C3-C2=1.3833         C3-C4=1.3892         C3-H11=1.0809        C4-C3=1.3892         C4-C5=1.3916         C4-O9=1.3629         
C5-C4=1.3916         C5-C6=1.3805         C5-H7=1.0790         C6-C1=1.3900         C6-C5=1.3805         C6-H8=1.0802         
H7-C5=1.0790         H8-C6=1.0802         O9-C4=1.3629         O9-H10=0.9688        H10-O9=0.9688        H11-C3=1.0809        
H12-C2=1.0804        C13-C1=1.5027        C13-H14=1.0915       C13-H15=1.0915       C13-C16=1.5306       H14-C13=1.0915       
H15-C13=1.0915       C16-C13=1.5306       C16-H17=1.0871       C16-H18=1.0876       C16-H19=1.0875       H17-C16=1.0871       
H18-C16=1.0876       H19-C16=1.0875       
 C  H  Rav=1.0851 sigma=0.0047  Rmin=1.0790  Rmax=1.0915     9
 C  C  Rav=1.4195 sigma=0.0567  Rmin=1.3805  Rmax=1.5306     8
 O  H  Rav=0.9688 sigma=0.0000  Rmin=0.9688  Rmax=0.9688     1
 O  C  Rav=1.3629 sigma=0.0000  Rmin=1.3629  Rmax=1.3629     1
 
 selected bond angles (degree)
 --------------------
C6-C1-C2=118.30                C13-C1-C2=120.90               C13-C1-C6=120.77               C3-C2-C1=121.17                
H12-C2-C1=119.57               H12-C2-C3=119.26               C4-C3-C2=120.00                H11-C3-C2=119.94               
H11-C3-C4=120.06               C5-C4-C3=119.34                O9-C4-C3=122.49                O9-C4-C5=118.17                
C6-C5-C4=120.03                H7-C5-C4=118.65                H7-C5-C6=121.31                C5-C6-C1=121.16                
H8-C6-C1=119.56                H8-C6-C5=119.28                H10-O9-C4=110.43               
 
 selected dihedral angles (degree)
 ---------------------------------
C3-C2-C1-C6=359.58            C3-C2-C1-C13=181.65           H12-C2-C1-C6=179.81           H12-C2-C1-C13=  1.88          
C4-C3-C2-C1=  0.15            C4-C3-C2-H12=179.93           H11-C3-C2-C1=180.25           H11-C3-C2-H12=  0.00          
C5-C4-C3-C2=  0.16            C5-C4-C3-H11=180.06           O9-C4-C3-C2=180.24            O9-C4-C3-H11=  0.15           
C6-C5-C4-C3=359.81            C6-C5-C4-O9=179.73            H7-C5-C4-C3=179.95            H7-C5-C4-O9=359.86            
C5-C6-C1-C2=  0.39            C5-C6-C1-C13=178.32           H8-C6-C1-C2=180.17            H8-C6-C1-C13=358.09           
C1-C6-C5-C4=359.91            C1-C6-C5-H7=179.77            H8-C6-C5-C4=180.13            H8-C6-C5-H7=  0.00            
H10-O9-C4-C3=359.76           H10-O9-C4-C5=179.85           
           -------------------------------------------------
          |                Final Singlepoint                |
           -------------------------------------------------

          ...................................................
          :                      SETUP                      :
          :.................................................:
          :  # basis functions                  46          :
          :  # atomic orbitals                  46          :
          :  # shells                           28          :
          :  # electrons                        48          :
          :  max. iterations                   250          :
          :  Hamiltonian                  GFN2-xTB          :
          :  restarted?                      false          :
          :  GBSA solvation                   true          :
          :  PC potential                    false          :
          :  electronic temp.          300.0000000     K    :
          :  accuracy                    1.0000000          :
          :  -> integral cutoff          0.2500000E+02      :
          :  -> integral neglect         0.1000000E-07      :
          :  -> SCF convergence          0.1000000E-05 Eh   :
          :  -> wf. convergence          0.1000000E-03 e    :
          :  Broyden damping             0.4000000          :
          ...................................................

 iter      E             dE          RMSdq      gap      omega  full diag
   1    -26.7144936 -0.267145E+02  0.602E-05    4.21       0.0  T
   2    -26.7144936 -0.410338E-11  0.395E-05    4.21     580.6  T
   3    -26.7144936 -0.827782E-12  0.165E-05    4.21    1392.4  T

   *** convergence criteria satisfied after 3 iterations ***

         #    Occupation            Energy/Eh            Energy/eV
      -------------------------------------------------------------
         1        2.0000           -0.7052040             -19.1896
       ...           ...                  ...                  ...
        18        2.0000           -0.4581546             -12.4670
        19        2.0000           -0.4431462             -12.0586
        20        2.0000           -0.4319484             -11.7539
        21        2.0000           -0.4234082             -11.5215
        22        2.0000           -0.4151724             -11.2974
        23        2.0000           -0.4006814             -10.9031
        24        2.0000           -0.3739919             -10.1768 (HOMO)
        25                         -0.2192473              -5.9660 (LUMO)
        26                         -0.2082623              -5.6671
        27                         -0.0861408              -2.3440
        28                          0.0727132               1.9786
        29                          0.1043581               2.8397
       ...                                ...                  ...
        46                          0.6663041              18.1311
      -------------------------------------------------------------
                  HL-Gap            0.1547446 Eh            4.2108 eV
             Fermi-level           -0.2966196 Eh           -8.0714 eV

 SCC (total)                   0 d,  0 h,  0 min,  0.007 sec
 SCC setup                      ...        0 min,  0.000 sec (  4.979%)
 Dispersion                     ...        0 min,  0.000 sec (  0.616%)
 classical contributions        ...        0 min,  0.000 sec (  0.215%)
 integral evaluation            ...        0 min,  0.001 sec ( 20.856%)
 iterations                     ...        0 min,  0.002 sec ( 25.545%)
 molecular gradient             ...        0 min,  0.003 sec ( 45.512%)
 printout                       ...        0 min,  0.000 sec (  1.980%)

         :::::::::::::::::::::::::::::::::::::::::::::::::::::
         ::                     SUMMARY                     ::
         :::::::::::::::::::::::::::::::::::::::::::::::::::::
         :: total energy             -26.295967091222 Eh    ::
         :: total w/o Gsasa/hb       -26.290967827200 Eh    ::
         :: gradient norm              0.000505141607 Eh/a0 ::
         :: HOMO-LUMO gap              4.210814327349 eV    ::
         ::.................................................::
         :: SCC energy               -26.714493558882 Eh    ::
         :: -> isotropic ES            0.030422252579 Eh    ::
         :: -> anisotropic ES          0.004674710560 Eh    ::
         :: -> anisotropic XC          0.011717039679 Eh    ::
         :: -> dispersion             -0.014362245313 Eh    ::
         :: -> Gsolv                  -0.009115761504 Eh    ::
         ::    -> Gelec               -0.004116497481 Eh    ::
         ::    -> Gsasa               -0.000011652932 Eh    ::
         ::    -> Ghb                 -0.006068370789 Eh    ::
         ::    -> Gshift               0.001080759698 Eh    ::
         :: repulsion energy           0.418497313130 Eh    ::
         :: add. restraining           0.000000000000 Eh    ::
         :: total charge               0.000000000000 e     ::
         :::::::::::::::::::::::::::::::::::::::::::::::::::::

           ------------------------------------------------- 
          |                Numerical Hessian                |
           ------------------------------------------------- 
step length          :   0.00500
SCC accuracy         :   0.30000
Hessian scale factor :   1.00000
frozen atoms in %    :   0.00000    0
RMS gradient         :   0.00051
estimated CPU  time      0.01 min
estimated wall time      0.01 min

writing file <hessian>.

 projected vibrational frequencies (cm⁻¹)
eigval :       -0.00    -0.00     0.00     0.00     0.00     0.00
eigval :       39.33    90.87   199.20   215.60   313.64   372.07
eigval :      384.24   400.38   404.66   452.42   527.65   613.78
eigval :      678.95   736.63   804.78   822.41   857.71   862.16
eigval :      901.42   919.70  1000.49  1031.01  1060.74  1079.18
eigval :     1102.73  1136.27  1185.46  1211.66  1233.63  1272.85
eigval :     1284.44  1320.59  1335.91  1404.22  1427.65  1483.50
eigval :     1493.60  1493.75  1504.45  1587.50  1613.32  2972.90
eigval :     2984.69  3029.63  3030.94  3039.60  3062.56  3074.55
eigval :     3079.19  3097.68  3461.66
           -------------------------------------------------
          |                Property Printout                |
           -------------------------------------------------

    * Orbital Energies and Occupations

         #    Occupation            Energy/Eh            Energy/eV
      -------------------------------------------------------------
         1        2.0000           -0.7052040             -19.1896
       ...           ...                  ...                  ...
        12        2.0000           -0.5080400             -13.8245
        13        2.0000           -0.4965140             -13.5108
        14        2.0000           -0.4848296             -13.1929
        15        2.0000           -0.4784106             -13.0182
        16        2.0000           -0.4748183             -12.9205
        17        2.0000           -0.4682244             -12.7410
        18        2.0000           -0.4581546             -12.4670
        19        2.0000           -0.4431462             -12.0586
        20        2.0000           -0.4319483             -11.7539
        21        2.0000           -0.4234081             -11.5215
        22        2.0000           -0.4151724             -11.2974
        23        2.0000           -0.4006814             -10.9031
        24        2.0000           -0.3739918             -10.1768 (HOMO)
        25                         -0.2192473              -5.9660 (LUMO)
        26                         -0.2082621              -5.6671
        27                         -0.0861407              -2.3440
        28                          0.0727133               1.9786
        29                          0.1043582               2.8397
        30                          0.1340005               3.6463
        31                          0.1412542               3.8437
        32                          0.1552626               4.2249
        33                          0.1616316               4.3982
        34                          0.1837520               5.0001
        35                          0.1904687               5.1829
       ...                                ...                  ...
        46                          0.6663042              18.1311
      -------------------------------------------------------------
                  HL-Gap            0.1547445 Eh            4.2108 eV
             Fermi-level           -0.2966196 Eh           -8.0714 eV

     #   Z          covCN         q      C6AA      α(0)
     1   6 C        2.969    -0.000    28.030     8.684
     2   6 C        2.926    -0.044    29.103     8.847
     3   6 C        2.917    -0.078    29.948     8.974
     4   6 C        2.846     0.139    24.958     8.188
     5   6 C        2.918    -0.064    29.586     8.920
     6   6 C        2.926    -0.044    29.085     8.844
     7   1 H        0.926     0.042     2.419     2.432
     8   1 H        0.926     0.038     2.472     2.459
     9   8 O        1.659    -0.464    22.129     6.350
    10   1 H        0.804     0.369     0.546     1.161
    11   1 H        0.926     0.039     2.465     2.455
    12   1 H        0.926     0.038     2.471     2.458
    13   6 C        3.806    -0.064    21.717     6.634
    14   1 H        0.924     0.040     2.447     2.446
    15   1 H        0.924     0.040     2.443     2.444
    16   6 C        3.753    -0.107    22.606     6.780
    17   1 H        0.925     0.043     2.413     2.429
    18   1 H        0.925     0.038     2.477     2.461
    19   1 H        0.925     0.038     2.480     2.463

 Mol. C6AA /au·bohr⁶  :       3701.072076
 Mol. C8AA /au·bohr⁸  :      86954.254529
 Mol. α(0) /au        :         95.429215


Wiberg/Mayer (AO) data.
largest (>0.10) Wiberg bond orders for each atom

 ---------------------------------------------------------------------------
     #   Z sym  total        # sym  WBO       # sym  WBO       # sym  WBO
 ---------------------------------------------------------------------------
     1   6 C    3.989 --     2 C    1.413     6 C    1.402    13 C    1.012
     2   6 C    3.991 --     3 C    1.447     1 C    1.413    12 H    0.969
                             5 C    0.108
     3   6 C    3.987 --     2 C    1.447     4 C    1.376    11 H    0.966
                             6 C    0.105
     4   6 C    3.937 --     3 C    1.376     5 C    1.364     9 O    1.067
     5   6 C    3.989 --     6 C    1.461     4 C    1.364     7 H    0.969
                             2 C    0.108
     6   6 C    3.991 --     5 C    1.461     1 C    1.402     8 H    0.969
                             3 C    0.105
     7   1 H    0.998 --     5 C    0.969
     8   1 H    0.999 --     6 C    0.969
     9   8 O    2.066 --     4 C    1.067    10 H    0.844
    10   1 H    0.864 --     9 O    0.844
    11   1 H    0.998 --     3 C    0.966
    12   1 H    0.999 --     2 C    0.969
    13   6 C    3.997 --     1 C    1.012    16 C    1.002    15 H    0.975
                            14 H    0.974
    14   1 H    0.998 --    13 C    0.974
    15   1 H    0.998 --    13 C    0.975
    16   6 C    3.995 --    13 C    1.002    18 H    0.988    19 H    0.988
                            17 H    0.986
    17   1 H    0.997 --    16 C    0.986
    18   1 H    0.999 --    16 C    0.988
    19   1 H    0.999 --    16 C    0.988
 ---------------------------------------------------------------------------

Topologies differ in total number of bonds
Writing topology from bond orders to xtbtopo.mol

molecular dipole:
                 x           y           z       tot (Debye)
 q only:       -0.181      -0.589       0.005
   full:       -0.149      -0.741       0.018       1.923
molecular quadrupole (traceless):
                xx          xy          yy          xz          yz          zz
 q only:        2.186      -6.148       0.393       0.519      -0.626      -2.579
  q+dip:        1.980      -7.757       3.911       1.403      -0.825      -5.891
   full:        1.521      -7.831       2.123       0.774      -0.818      -3.644

           -------------------------------------------------
          |                Geometry Summary                 |
           -------------------------------------------------

      molecular mass/u    :      122.1646996
   center of mass at/Å    :        0.0701608       0.0069705      -0.0082047
  moments of inertia/u·Å² :        0.1136211E+03   0.5248936E+03   0.5932548E+03
rotational constants/cm⁻¹ :        0.1483671E+00   0.3211629E-01   0.2841550E-01

 * 18 selected distances

     #   Z          #   Z                                           value/Å
     1   6 C        2   6 C                                       1.3879003
     2   6 C        3   6 C                                       1.3832905
     3   6 C        4   6 C                                       1.3891869
     4   6 C        5   6 C                                       1.3915759
     1   6 C        6   6 C                                       1.3900261
     5   6 C        6   6 C                                       1.3804859
     5   6 C        7   1 H                                       1.0789767
     6   6 C        8   1 H                                       1.0802079
     4   6 C        9   8 O                                       1.3629127
     9   8 O       10   1 H                                       0.9687848 (min)
     3   6 C       11   1 H                                       1.0808814
     2   6 C       12   1 H                                       1.0803687
    13   6 C       14   1 H                                       1.0915256
    13   6 C       15   1 H                                       1.0914712
    13   6 C       16   6 C                                       1.5306272 (max)
    16   6 C       17   1 H                                       1.0871084
    16   6 C       18   1 H                                       1.0875509
    16   6 C       19   1 H                                       1.0875296

 * 4 distinct bonds (by element types)

   Z      Z             #   av. dist./Å        max./Å        min./Å
   1 H    6 C           9     1.0850689     1.0915256     1.0789767
   6 C    6 C           7     1.4075847     1.5306272     1.3804859
   1 H    8 O           1     0.9687848     0.9687848     0.9687848
   6 C    8 O           1     1.3629127     1.3629127     1.3629127

           -------------------------------------------------
          |               Frequency Printout                |
           -------------------------------------------------
 projected vibrational frequencies (cm⁻¹)
eigval :       -0.00    -0.00     0.00     0.00     0.00     0.00
eigval :       39.33    90.87   199.20   215.60   313.64   372.07
eigval :      384.24   400.38   404.66   452.42   527.65   613.78
eigval :      678.95   736.63   804.78   822.41   857.71   862.16
eigval :      901.42   919.70  1000.49  1031.01  1060.74  1079.18
eigval :     1102.73  1136.27  1185.46  1211.66  1233.63  1272.85
eigval :     1284.44  1320.59  1335.91  1404.22  1427.65  1483.50
eigval :     1493.60  1493.75  1504.45  1587.50  1613.32  2972.90
eigval :     2984.69  3029.63  3030.94  3039.60  3062.56  3074.55
eigval :     3079.19  3097.68  3461.66
 reduced masses (amu)
   1: 10.44   2:  9.91   3: 11.21   4: 12.73   5: 12.69   6: 10.05   7:  8.35   8: 11.14
   9:  2.09  10: 10.35  11:  8.83  12:  7.50  13: 10.65  14:  4.56  15:  9.85  16: 11.19
  17:  8.80  18: 11.32  19: 11.27  20: 10.64  21:  5.03  22:  2.48  23: 11.31  24:  3.36
  25:  2.75  26:  3.84  27:  8.26  28:  6.39  29:  4.25  30:  8.21  31:  3.66  32:  2.36
  33:  2.41  34:  5.80  35:  3.50  36: 10.43  37:  3.32  38:  5.71  39: 11.34  40:  3.04
  41:  9.72  42:  2.05  43:  1.59  44:  7.93  45:  3.29  46: 11.55  47: 11.54  48:  1.98
  49:  1.48  50:  1.96  51:  1.95  52:  1.24  53:  1.79  54:  1.81  55:  1.85  56:  1.86
  57:  1.87
 IR intensities (km·mol⁻¹)
   1:  0.19   2:  0.89   3:  0.18   4:  0.01   5:  0.17   6:  0.26   7:  0.40   8:  0.45
   9:  0.20  10:  0.02  11:  4.57  12: 41.72  13:  0.88  14:157.99  15: 18.22  16:  1.21
  17:  0.48  18:  1.17  19:  3.88  20: 30.47  21: 39.56  22:  5.40  23: 24.01  24:  0.47
  25:  0.08  26:  0.12  27: 23.08  28:  1.18  29: 14.41  30: 15.23  31:276.71  32: 42.38
  33: 48.70  34:131.00  35:  1.03  36:170.58  37: 37.08  38:  4.44  39: 27.00  40:  0.25
  41: 27.74  42:  7.17  43:  1.95  44:124.05  45: 38.94  46: 19.63  47: 53.38  48: 57.53
  49: 68.55  50: 80.35  51: 93.09  52: 39.26  53: 51.99  54:122.23  55: 79.40  56: 74.38
  57:133.18
 Raman intensities (amu)
   1:  0.00   2:  0.00   3:  0.00   4:  0.00   5:  0.00   6:  0.00   7:  0.00   8:  0.00
   9:  0.00  10:  0.00  11:  0.00  12:  0.00  13:  0.00  14:  0.00  15:  0.00  16:  0.00
  17:  0.00  18:  0.00  19:  0.00  20:  0.00  21:  0.00  22:  0.00  23:  0.00  24:  0.00
  25:  0.00  26:  0.00  27:  0.00  28:  0.00  29:  0.00  30:  0.00  31:  0.00  32:  0.00
  33:  0.00  34:  0.00  35:  0.00  36:  0.00  37:  0.00  38:  0.00  39:  0.00  40:  0.00
  41:  0.00  42:  0.00  43:  0.00  44:  0.00  45:  0.00  46:  0.00  47:  0.00  48:  0.00
  49:  0.00  50:  0.00  51:  0.00  52:  0.00  53:  0.00  54:  0.00  55:  0.00  56:  0.00
  57:  0.00
 output can be read by thermo (or use thermo option).
 writing <g98.out> molden fake output.
 recommended (thermochemical) frequency scaling factor: 1.0
           -------------------------------------------------
          |             Thermodynamic Functions             |
           -------------------------------------------------

Molecule has no symmetry elements
It seems to be the C1 point group
c1  symmetry found (for desy threshold:  0.10E+00) used in thermo

          ...................................................
          :                      SETUP                      :
          :.................................................:
          :  # frequencies                          51      :
          :  # imaginary freq.                       0      :
          :  linear?                             false      :
          :  only rotor calc.                    false      :
          :  symmetry                               c1      :
          :  rotational number                       1      :
          :  scaling factor                  1.0000000      :
          :  rotor cutoff                   50.0000000 cm⁻¹ :
          :  imag. cutoff                  -20.0000000 cm⁻¹ :
          :.................................................:

    mode    ω/cm⁻¹     T·S(HO)/kcal·mol⁻¹    T·S(FR)/kcal·mol⁻¹   T·S(vib)
   ------------------------------------------------------------------------
       1     39.33    -1.57790 ( 27.70%)    -1.12731 ( 72.30%)    -1.25210
       2     90.87    -1.08565 ( 91.60%)    -0.87945 (  8.40%)    -1.06834
       3    199.20    -0.63818 ( 99.60%)    -0.64700 (  0.40%)    -0.63822
       4    215.60    -0.59502 ( 99.71%)    -0.62356 (  0.29%)    -0.59510
   ------------------------------------------------------------------------

   temp. (K)  partition function   enthalpy   heat capacity  entropy
                                   cal/mol     cal/K/mol   cal/K/mol   J/K/mol
 298.15  VIB   163.                 3709.221     27.387     21.416
         ROT  0.454E+06              888.752      2.981     28.868
         INT  0.741E+08             4597.973     30.368     50.284
         TR   0.131E+28             1481.254      4.968     40.296
         TOT                        6079.2268    35.3360    90.5805   378.9889

       T/K    H(0)-H(T)+PV         H(T)/Eh          T*S/Eh         G(T)/Eh
   ------------------------------------------------------------------------
    298.15    0.968786E-02    0.166184E+00    0.430377E-01    0.123147E+00
   ------------------------------------------------------------------------

         :::::::::::::::::::::::::::::::::::::::::::::::::::::
         ::                  THERMODYNAMIC                  ::
         :::::::::::::::::::::::::::::::::::::::::::::::::::::
         :: total free energy         -26.172820571311 Eh   ::
         ::.................................................::
         :: total energy              -26.295967089701 Eh   ::
         :: zero point energy           0.156496381288 Eh   ::
         :: G(RRHO) w/o ZPVE           -0.033349862898 Eh   ::
         :: G(RRHO) contrib.            0.123146518390 Eh   ::
         :::::::::::::::::::::::::::::::::::::::::::::::::::::

optimized geometry written to: xtbopt.xyz


           -------------------------------------------------
          | TOTAL ENERGY              -26.295967089701 Eh   |
          | TOTAL ENTHALPY            -26.129782843828 Eh   |
          | TOTAL FREE ENERGY         -26.172820571311 Eh   |
          | GRADIENT NORM               0.000505283111 Eh/α |
          | HOMO-LUMO GAP               4.210811337229 eV   |
           -------------------------------------------------

------------------------------------------------------------------------
 * finished run on 2021/11/15 at 09:36:11.750     
------------------------------------------------------------------------
 total:
 * wall-time:     0 d,  0 h,  0 min,  0.968 sec
 *  cpu-time:     0 d,  0 h,  0 min,  0.953 sec
 * ratio c/w:     0.984 speedup
 SCF:
 * wall-time:     0 d,  0 h,  0 min,  0.010 sec
 *  cpu-time:     0 d,  0 h,  0 min,  0.000 sec
 * ratio c/w:     0.000 speedup
 ANC optimizer:
 * wall-time:     0 d,  0 h,  0 min,  0.066 sec
 *  cpu-time:     0 d,  0 h,  0 min,  0.078 sec
 * ratio c/w:     1.188 speedup
 analytical hessian:
 * wall-time:     0 d,  0 h,  0 min,  0.857 sec
 *  cpu-time:     0 d,  0 h,  0 min,  0.844 sec
 * ratio c/w:     0.985 speedup

