 Entering Gaussian System
 *********************************************
 Gaussian 98:
 frequency output generated by the xtb code
 *********************************************
                         Standard orientation:
 --------------------------------------------------------------------
  Center     Atomic     Atomic              Coordinates (Angstroms)
  Number     Number      Type              X           Y           Z
 --------------------------------------------------------------------
    1          6             0       -0.913646   -0.011633   -0.355720
    2          6             0       -0.196783   -1.193930   -0.235103
    3          6             0        1.169367   -1.183925   -0.018251
    4          6             0        1.847326    0.024135    0.085684
    5          6             0        1.137895    1.215958   -0.027230
    6          6             0       -0.225198    1.190773   -0.244219
    7          1             0        1.675345    2.147833    0.056120
    8          1             0       -0.763507    2.123161   -0.332108
    9          8             0        3.192436    0.093288    0.294072
   10          1             0        3.571061   -0.796196    0.357351
   11          1             0        1.708629   -2.116638    0.068631
   12          1             0       -0.711754   -2.140285   -0.315189
   13          6             0       -2.403083   -0.029040   -0.554406
   14          1             0       -2.705000    0.836783   -1.146542
   15          1             0       -2.692111   -0.931504   -1.096007
   16          6             0       -3.129361    0.004604    0.792519
   17          1             0       -4.206182   -0.005580    0.643663
   18          1             0       -2.851769   -0.858852    1.392648
   19          1             0       -2.861582    0.903432    1.343085
 --------------------------------------------------------------------
     1 basis functions        1 primitive gaussians
     1 alpha electrons        1 beta electrons
 
 Harmonic frequencies (cm**-1), IR intensities (km*mol⁻¹),
 Raman scattering activities (A**4/amu), Raman depolarization ratios,
 reduced masses (AMU), force constants (mDyne/A) and normal coordinates:
                      1                      2                      3
                        a                      a                      a 
 Frequencies --    39.3350                90.8677               199.1995
 Red. masses --     8.3513                11.1449                 2.0947
 Frc consts  --     0.0000                 0.0000                 0.0000
 IR Inten    --     0.3956                 0.4508                 0.1988
 Raman Activ --     0.0000                 0.0000                 0.0000
 Depolar     --     0.0000                 0.0000                 0.0000
 Atom AN      X      Y      Z        X      Y      Z        X      Y      Z
   1   6     0.00  -0.19   0.00     0.02  -0.00   0.25    -0.00   0.14   0.01
   2   6     0.12  -0.13  -0.20     0.02   0.00   0.28    -0.04   0.11  -0.01
   3   6     0.12  -0.03  -0.21     0.04   0.00   0.15    -0.05   0.02  -0.02
   4   6    -0.00   0.01  -0.00     0.07  -0.00  -0.03     0.01  -0.01  -0.00
   5   6    -0.12  -0.04   0.20     0.04  -0.00   0.16     0.06   0.02   0.00
   6   6    -0.11  -0.14   0.19     0.02  -0.00   0.29     0.05   0.11   0.01
   7   1    -0.06   0.00   0.10     0.01  -0.00   0.03     0.03  -0.00   0.00
   8   1    -0.06  -0.05   0.10     0.00  -0.00   0.10     0.03   0.04   0.01
   9   8    -0.01   0.13   0.02     0.16   0.00  -0.51     0.01  -0.15   0.01
  10   1     0.02   0.04  -0.03     0.05   0.00  -0.18    -0.02  -0.05   0.00
  11   1     0.06   0.00  -0.11     0.01  -0.00   0.03    -0.03  -0.00  -0.01
  12   1     0.06  -0.05  -0.10     0.00   0.00   0.10    -0.03   0.04  -0.01
  13   6     0.00  -0.25   0.01     0.06  -0.00  -0.08    -0.00  -0.08   0.01
  14   1     0.01  -0.16  -0.14     0.07  -0.00  -0.05    -0.06  -0.07  -0.04
  15   1    -0.01  -0.16   0.15     0.06  -0.00  -0.05     0.06  -0.07   0.05
  16   6     0.00   0.54  -0.01    -0.38   0.00  -0.32    -0.02  -0.08  -0.00
  17   1     0.00   0.15  -0.00    -0.09   0.00  -0.20    -0.00  -0.57   0.01
  18   1    -0.01   0.25   0.14    -0.17   0.00  -0.07     0.40   0.25   0.21
  19   1     0.01   0.24  -0.15    -0.16   0.00  -0.07    -0.43   0.24  -0.22
                      4                      5                      6
                        a                      a                      a 
 Frequencies --   215.6049               313.6388               372.0656
 Red. masses --    10.3513                 8.8266                 7.5047
 Frc consts  --     0.0000                 0.0000                 0.0000
 IR Inten    --     0.0219                 4.5688                41.7237
 Raman Activ --     0.0000                 0.0000                 0.0000
 Depolar     --     0.0000                 0.0000                 0.0000
 Atom AN      X      Y      Z        X      Y      Z        X      Y      Z
   1   6     0.00  -0.00  -0.24     0.01  -0.21   0.01    -0.01  -0.00  -0.05
   2   6    -0.09  -0.02   0.08     0.01  -0.22   0.01    -0.04   0.01   0.31
   3   6    -0.13  -0.01   0.31     0.06  -0.18   0.00     0.06   0.01  -0.31
   4   6    -0.13  -0.00   0.15    -0.00  -0.13  -0.01     0.02   0.00   0.08
   5   6    -0.13   0.01   0.31    -0.05  -0.18  -0.02    -0.05  -0.01   0.38
   6   6    -0.09   0.01   0.07    -0.00  -0.22  -0.01     0.08  -0.01  -0.45
   7   1    -0.04  -0.00   0.13    -0.01  -0.05  -0.01    -0.04   0.00   0.21
   8   1    -0.03  -0.00   0.02    -0.01  -0.07  -0.00     0.05  -0.00  -0.27
   9   8    -0.07   0.00  -0.35    -0.04   0.44   0.01     0.03  -0.01   0.09
  10   1    -0.01   0.00  -0.14     0.11   0.16   0.01     0.08  -0.00  -0.45
  11   1    -0.04  -0.00   0.13     0.02  -0.05   0.00     0.03   0.00  -0.20
  12   1    -0.03  -0.00   0.02     0.01  -0.07   0.01    -0.02   0.00   0.20
  13   6     0.03   0.00  -0.27    -0.00   0.46  -0.00    -0.04  -0.00   0.03
  14   1    -0.02   0.00  -0.06     0.12   0.27   0.14    -0.01  -0.00   0.01
  15   1    -0.02  -0.00  -0.06    -0.12   0.26  -0.15    -0.02  -0.00   0.01
  16   6     0.50   0.01  -0.03    -0.01   0.07   0.00    -0.06  -0.00   0.03
  17   1     0.13  -0.02   0.12    -0.00  -0.18   0.00    -0.02   0.00  -0.00
  18   1     0.24   0.02  -0.03     0.16   0.07   0.01    -0.03  -0.00   0.01
  19   1     0.20   0.01  -0.05    -0.17   0.07  -0.01    -0.02  -0.00   0.01
                      7                      8                      9
                        a                      a                      a 
 Frequencies --   384.2443               400.3775               404.6586
 Red. masses --    10.6468                 4.5552                 9.8511
 Frc consts  --     0.0000                 0.0000                 0.0000
 IR Inten    --     0.8794               157.9933                18.2152
 Raman Activ --     0.0000                 0.0000                 0.0000
 Depolar     --     0.0000                 0.0000                 0.0000
 Atom AN      X      Y      Z        X      Y      Z        X      Y      Z
   1   6    -0.08  -0.01  -0.29     0.03   0.05   0.08    -0.01  -0.27   0.02
   2   6     0.10   0.06  -0.41    -0.01   0.02  -0.11     0.12  -0.19   0.02
   3   6     0.01   0.07   0.34    -0.05  -0.07   0.13     0.09   0.30   0.03
   4   6     0.13   0.01   0.35    -0.04  -0.07  -0.05     0.01   0.34  -0.03
   5   6     0.04  -0.07   0.10     0.05  -0.03  -0.28    -0.10   0.28  -0.08
   6   6     0.06  -0.08  -0.18    -0.01   0.06   0.19    -0.14  -0.20   0.03
   7   1    -0.01  -0.00  -0.00     0.05  -0.02  -0.14    -0.12   0.13  -0.05
   8   1     0.04  -0.01  -0.07    -0.00   0.02   0.10    -0.11  -0.10   0.01
   9   8     0.27   0.00  -0.16    -0.12   0.08   0.28     0.05  -0.44   0.08
  10   1     0.08   0.00  -0.15     0.14   0.03  -0.80    -0.14  -0.19  -0.17
  11   1    -0.03   0.01   0.15    -0.03  -0.03   0.09     0.10   0.13   0.03
  12   1     0.07  -0.00  -0.21    -0.02   0.02  -0.08     0.11  -0.09   0.01
  13   6    -0.21   0.01   0.13     0.06  -0.04  -0.01    -0.01   0.17  -0.02
  14   1    -0.09   0.00   0.05     0.00  -0.03  -0.03     0.09   0.14   0.07
  15   1    -0.09   0.00   0.05     0.04  -0.03   0.01    -0.09   0.13  -0.09
  16   6    -0.27   0.01   0.16     0.05  -0.00  -0.03     0.02   0.04  -0.01
  17   1    -0.07  -0.00   0.00     0.01   0.01  -0.01     0.00  -0.05   0.01
  18   1    -0.10   0.00   0.05     0.01  -0.00  -0.01     0.06   0.03  -0.01
  19   1    -0.10   0.00   0.05     0.03  -0.00  -0.01    -0.04   0.03  -0.00
                     10                     11                     12
                        a                      a                      a 
 Frequencies --   452.4154               527.6520               613.7775
 Red. masses --    11.1943                 8.8029                11.3181
 Frc consts  --     0.0000                 0.0000                 0.0000
 IR Inten    --     1.2139                 0.4793                 1.1747
 Raman Activ --     0.0000                 0.0000                 0.0000
 Depolar     --     0.0000                 0.0000                 0.0000
 Atom AN      X      Y      Z        X      Y      Z        X      Y      Z
   1   6    -0.29   0.01  -0.16    -0.21   0.01   0.47     0.00   0.11  -0.00
   2   6    -0.09   0.16   0.19    -0.06   0.06  -0.00     0.39   0.28   0.06
   3   6     0.00   0.13  -0.05    -0.02   0.06  -0.15     0.38  -0.23   0.06
   4   6     0.34  -0.02  -0.26     0.02  -0.00   0.51     0.00  -0.10  -0.00
   5   6     0.02  -0.18  -0.05    -0.01  -0.08  -0.15    -0.38  -0.25  -0.06
   6   6    -0.07  -0.14   0.19    -0.05  -0.05   0.00    -0.39   0.27  -0.06
   7   1    -0.06  -0.02   0.05     0.01  -0.01  -0.29    -0.08  -0.08  -0.01
   8   1     0.02  -0.00   0.16     0.04  -0.00  -0.21    -0.08   0.09  -0.01
   9   8     0.39   0.04   0.20     0.17   0.01  -0.09     0.01  -0.16   0.00
  10   1     0.12   0.01   0.01     0.04   0.00   0.01    -0.05  -0.06  -0.01
  11   1    -0.07  -0.00   0.04     0.01   0.00  -0.29     0.08  -0.08   0.01
  12   1     0.01   0.02   0.16     0.04   0.01  -0.21     0.08   0.09   0.01
  13   6    -0.37  -0.01  -0.21    -0.11  -0.01  -0.16     0.00   0.06   0.00
  14   1    -0.12  -0.01  -0.05     0.01   0.00  -0.06     0.03   0.05   0.04
  15   1    -0.11  -0.01  -0.04     0.01  -0.01  -0.06    -0.03   0.05  -0.04
  16   6     0.03  -0.00   0.00     0.14  -0.00  -0.09    -0.00   0.02   0.00
  17   1    -0.01   0.01   0.14     0.02   0.00   0.10     0.00  -0.00  -0.00
  18   1     0.08   0.00  -0.03     0.11   0.00  -0.06     0.01   0.00  -0.00
  19   1     0.08  -0.00  -0.03     0.11  -0.00  -0.06    -0.01   0.00   0.01
                     13                     14                     15
                        a                      a                      a 
 Frequencies --   678.9521               736.6345               804.7840
 Red. masses --    11.2652                10.6370                 5.0320
 Frc consts  --     0.0000                 0.0000                 0.0000
 IR Inten    --     3.8764                30.4705                39.5571
 Raman Activ --     0.0000                 0.0000                 0.0000
 Depolar     --     0.0000                 0.0000                 0.0000
 Atom AN      X      Y      Z        X      Y      Z        X      Y      Z
   1   6    -0.11   0.00   0.54     0.06   0.00  -0.08    -0.06   0.00   0.28
   2   6    -0.01   0.01  -0.30    -0.28  -0.06  -0.04     0.05   0.03  -0.20
   3   6    -0.10   0.04   0.29    -0.28   0.13  -0.10     0.06   0.01  -0.27
   4   6     0.11  -0.00  -0.48     0.10   0.00   0.10    -0.05  -0.00   0.28
   5   6    -0.10  -0.04   0.28    -0.27  -0.14  -0.09     0.05  -0.00  -0.18
   6   6    -0.01  -0.01  -0.30    -0.28   0.05  -0.03     0.05  -0.02  -0.18
   7   1    -0.05  -0.00   0.09    -0.14  -0.00   0.01    -0.05  -0.00   0.37
   8   1     0.01  -0.00  -0.13    -0.11  -0.01   0.04    -0.04  -0.00   0.30
   9   8     0.07   0.00   0.08     0.42   0.01   0.05    -0.03  -0.00  -0.07
  10   1     0.02   0.00   0.01     0.10   0.00   0.01    -0.00   0.00  -0.01
  11   1    -0.05   0.00   0.09    -0.14   0.00   0.02    -0.08   0.00   0.51
  12   1     0.01   0.00  -0.13    -0.12   0.00   0.04    -0.05   0.01   0.35
  13   6     0.03  -0.00  -0.02     0.42   0.01   0.21    -0.05  -0.01  -0.02
  14   1     0.06   0.00  -0.02     0.11  -0.00   0.06     0.03   0.01  -0.01
  15   1     0.05  -0.00  -0.02     0.11   0.00   0.06     0.02   0.01  -0.04
  16   6     0.07  -0.00  -0.07     0.12   0.00  -0.04     0.01  -0.00  -0.05
  17   1     0.01   0.00   0.04     0.06  -0.01  -0.24    -0.01   0.01   0.07
  18   1     0.05   0.00  -0.03    -0.09  -0.00   0.03     0.05   0.01  -0.02
  19   1     0.05  -0.00  -0.03    -0.09   0.00   0.04     0.06   0.00  -0.04
                     16                     17                     18
                        a                      a                      a 
 Frequencies --   822.4052               857.7139               862.1574
 Red. masses --     2.4796                11.3106                 3.3591
 Frc consts  --     0.0000                 0.0000                 0.0000
 IR Inten    --     5.3958                24.0103                 0.4722
 Raman Activ --     0.0000                 0.0000                 0.0000
 Depolar     --     0.0000                 0.0000                 0.0000
 Atom AN      X      Y      Z        X      Y      Z        X      Y      Z
   1   6    -0.00  -0.01   0.02     0.15  -0.00   0.04     0.00  -0.00  -0.03
   2   6     0.03  -0.06   0.01    -0.12  -0.42  -0.03     0.02   0.00  -0.12
   3   6     0.04  -0.02   0.01     0.02  -0.35  -0.01     0.04   0.01  -0.26
   4   6    -0.00   0.01   0.01    -0.07   0.00  -0.01     0.01   0.00  -0.04
   5   6    -0.04  -0.02  -0.02     0.01   0.35   0.00    -0.05  -0.01   0.28
   6   6    -0.02  -0.06  -0.02    -0.13   0.42  -0.02    -0.03  -0.01   0.22
   7   1    -0.04   0.01   0.03     0.08   0.06   0.01     0.08  -0.00  -0.52
   8   1    -0.03  -0.03   0.03    -0.13   0.07  -0.03     0.07  -0.00  -0.43
   9   8    -0.00  -0.01  -0.00     0.39   0.00   0.06    -0.01  -0.00   0.01
  10   1    -0.01  -0.01  -0.00     0.09   0.00   0.01    -0.00  -0.00   0.01
  11   1     0.03   0.00   0.00     0.07  -0.06   0.03    -0.08   0.00   0.50
  12   1     0.03  -0.03  -0.00    -0.12  -0.07  -0.01    -0.04   0.00   0.25
  13   6    -0.01   0.32  -0.01    -0.18  -0.00  -0.12     0.01   0.02   0.00
  14   1    -0.07  -0.23  -0.42    -0.05  -0.01  -0.04    -0.01  -0.01  -0.01
  15   1     0.07  -0.20   0.43    -0.05   0.00  -0.04     0.00  -0.01   0.02
  16   6    -0.00   0.12  -0.00    -0.12   0.00   0.05     0.00   0.01   0.01
  17   1    -0.00  -0.16   0.01    -0.05   0.00   0.17     0.00  -0.01  -0.01
  18   1     0.16  -0.17  -0.36     0.06   0.01  -0.02    -0.00  -0.01  -0.01
  19   1    -0.16  -0.15   0.37     0.06  -0.01  -0.02    -0.01  -0.01   0.02
                     19                     20                     21
                        a                      a                      a 
 Frequencies --   901.4217               919.6992              1000.4941
 Red. masses --     2.7531                 3.8392                 8.2576
 Frc consts  --     0.0000                 0.0000                 0.0000
 IR Inten    --     0.0773                 0.1222                23.0789
 Raman Activ --     0.0000                 0.0000                 0.0000
 Depolar     --     0.0000                 0.0000                 0.0000
 Atom AN      X      Y      Z        X      Y      Z        X      Y      Z
   1   6    -0.00   0.00   0.00    -0.00   0.00   0.00     0.22   0.00  -0.02
   2   6     0.05   0.00  -0.30     0.04  -0.00  -0.24    -0.02  -0.24   0.00
   3   6    -0.03   0.00   0.19    -0.02   0.00   0.16    -0.09   0.39  -0.01
   4   6    -0.00   0.00   0.04     0.00   0.00  -0.00     0.11   0.00   0.02
   5   6    -0.02  -0.00   0.13     0.04  -0.00  -0.25    -0.08  -0.40  -0.01
   6   6     0.02  -0.01  -0.11    -0.05  -0.00   0.33    -0.03   0.23   0.00
   7   1     0.06  -0.00  -0.36    -0.07   0.00   0.44     0.09  -0.17   0.01
   8   1    -0.05  -0.00   0.32     0.10   0.00  -0.59     0.10   0.12   0.01
   9   8    -0.00   0.00   0.01     0.00   0.00  -0.01    -0.12   0.00  -0.02
  10   1    -0.00  -0.00  -0.01    -0.00  -0.00   0.01    -0.04  -0.01  -0.01
  11   1     0.07  -0.00  -0.42     0.04   0.00  -0.21     0.09   0.17   0.01
  12   1    -0.11   0.01   0.64    -0.06   0.00   0.36     0.10  -0.12   0.01
  13   6    -0.01   0.00   0.01     0.00   0.01  -0.00     0.11  -0.00  -0.15
  14   1     0.00  -0.00  -0.01    -0.01  -0.00  -0.00     0.12  -0.01  -0.09
  15   1     0.01  -0.00  -0.00     0.01  -0.00   0.00     0.12   0.00  -0.09
  16   6     0.00   0.00  -0.02    -0.00   0.00   0.00    -0.29   0.00   0.15
  17   1    -0.00  -0.00   0.01    -0.00  -0.00  -0.00    -0.12   0.01   0.36
  18   1     0.01   0.00  -0.01    -0.00  -0.00  -0.00     0.11   0.02  -0.02
  19   1     0.01  -0.00  -0.00    -0.00  -0.00   0.00     0.11  -0.02  -0.02
                     22                     23                     24
                        a                      a                      a 
 Frequencies --  1031.0097              1060.7443              1079.1806
 Red. masses --     6.3860                 4.2533                 8.2111
 Frc consts  --     0.0000                 0.0000                 0.0000
 IR Inten    --     1.1762                14.4130                15.2349
 Raman Activ --     0.0000                 0.0000                 0.0000
 Depolar     --     0.0000                 0.0000                 0.0000
 Atom AN      X      Y      Z        X      Y      Z        X      Y      Z
   1   6    -0.07  -0.01   0.07     0.00   0.16   0.01    -0.05  -0.00   0.12
   2   6    -0.02  -0.28  -0.01    -0.01  -0.17   0.00     0.00  -0.01  -0.02
   3   6     0.04   0.19   0.00     0.07  -0.10   0.01     0.01  -0.00  -0.01
   4   6     0.05  -0.00   0.01    -0.00   0.11   0.00    -0.01   0.00   0.00
   5   6     0.04  -0.18   0.00    -0.06  -0.11  -0.01     0.01  -0.00  -0.01
   6   6    -0.03   0.30  -0.01     0.02  -0.14  -0.00     0.00   0.01  -0.02
   7   1     0.20  -0.16   0.04    -0.14   0.04  -0.02     0.03  -0.02   0.02
   8   1     0.12   0.16   0.03     0.04  -0.02   0.01     0.01   0.01   0.03
   9   8    -0.07  -0.00  -0.01     0.04   0.05   0.01     0.01   0.01   0.00
  10   1    -0.02  -0.00  -0.00    -0.18  -0.07  -0.03    -0.03  -0.01  -0.00
  11   1     0.18   0.15   0.03     0.13   0.04   0.03     0.01   0.01   0.01
  12   1     0.13  -0.16   0.03    -0.02  -0.04  -0.01     0.00  -0.01   0.03
  13   6    -0.27  -0.01   0.14    -0.02   0.37  -0.01     0.11  -0.02  -0.60
  14   1    -0.21   0.01   0.12    -0.47  -0.09  -0.03    -0.03   0.00  -0.11
  15   1    -0.23   0.00   0.12     0.45  -0.08   0.04    -0.04  -0.01  -0.11
  16   6     0.31   0.00  -0.19     0.01  -0.20  -0.00     0.06   0.02   0.51
  17   1     0.12  -0.01  -0.38     0.00   0.13  -0.01     0.06  -0.01  -0.27
  18   1    -0.11  -0.02  -0.00    -0.12   0.09   0.24    -0.26  -0.02   0.23
  19   1    -0.12   0.02   0.01     0.11   0.07  -0.25    -0.26   0.02   0.23
                     25                     26                     27
                        a                      a                      a 
 Frequencies --  1102.7272              1136.2663              1185.4625
 Red. masses --     3.6610                 2.3613                 2.4079
 Frc consts  --     0.0000                 0.0000                 0.0000
 IR Inten    --   276.7099                42.3836                48.7020
 Raman Activ --     0.0000                 0.0000                 0.0000
 Depolar     --     0.0000                 0.0000                 0.0000
 Atom AN      X      Y      Z        X      Y      Z        X      Y      Z
   1   6    -0.00  -0.05   0.01     0.02   0.12   0.01     0.07  -0.02   0.02
   2   6     0.05   0.04   0.01    -0.11  -0.09  -0.02     0.09  -0.13   0.01
   3   6    -0.01   0.14  -0.00     0.10  -0.07   0.02    -0.07  -0.04  -0.01
   4   6     0.03  -0.19   0.01     0.06   0.04   0.01     0.18  -0.02   0.03
   5   6    -0.01   0.15  -0.00    -0.10  -0.07  -0.02    -0.02   0.05  -0.00
   6   6    -0.07   0.05  -0.01     0.13  -0.02   0.02     0.05   0.17   0.01
   7   1    -0.00   0.04  -0.00    -0.51   0.26  -0.08    -0.40   0.25  -0.06
   8   1    -0.19  -0.09  -0.03     0.37   0.19   0.06     0.22   0.17   0.04
   9   8    -0.19  -0.24  -0.03    -0.10  -0.08  -0.01    -0.12   0.02  -0.02
  10   1     0.74   0.29   0.11     0.22   0.09   0.03    -0.07  -0.01  -0.01
  11   1     0.02   0.06   0.00     0.36   0.17   0.06    -0.52  -0.30  -0.08
  12   1     0.18  -0.08   0.03    -0.32   0.13  -0.05     0.37  -0.23   0.07
  13   6     0.01   0.13  -0.02    -0.01  -0.10  -0.01    -0.04   0.01  -0.02
  14   1    -0.13  -0.03  -0.02     0.07   0.02   0.02    -0.04   0.00   0.01
  15   1     0.13  -0.02   0.02    -0.10   0.02  -0.02    -0.03  -0.00   0.02
  16   6     0.00  -0.06   0.02     0.01   0.05   0.00     0.01  -0.00  -0.00
  17   1     0.00   0.04  -0.01     0.00  -0.03  -0.01     0.00   0.00  -0.01
  18   1    -0.04   0.03   0.08     0.02  -0.02  -0.05    -0.01  -0.00   0.00
  19   1     0.03   0.02  -0.07    -0.03  -0.02   0.06    -0.01   0.00  -0.00
                     28                     29                     30
                        a                      a                      a 
 Frequencies --  1211.6643              1233.6270              1272.8537
 Red. masses --     5.8029                 3.4987                10.4342
 Frc consts  --     0.0000                 0.0000                 0.0000
 IR Inten    --   130.9990                 1.0269               170.5805
 Raman Activ --     0.0000                 0.0000                 0.0000
 Depolar     --     0.0000                 0.0000                 0.0000
 Atom AN      X      Y      Z        X      Y      Z        X      Y      Z
   1   6     0.43   0.01   0.11     0.00  -0.16  -0.00    -0.41  -0.02  -0.10
   2   6     0.03  -0.03   0.00    -0.01   0.04  -0.00    -0.22  -0.12  -0.03
   3   6     0.00   0.13  -0.00     0.05   0.04   0.01     0.24  -0.08   0.04
   4   6     0.33  -0.00   0.05     0.02  -0.01   0.00     0.55  -0.02   0.09
   5   6     0.03  -0.13   0.00    -0.04   0.04  -0.01     0.19   0.10   0.03
   6   6     0.02   0.04   0.00     0.01   0.05   0.00    -0.18   0.14  -0.03
   7   1    -0.13   0.05  -0.02     0.05  -0.02   0.01     0.06   0.04   0.01
   8   1    -0.42  -0.24  -0.07     0.13   0.09   0.02    -0.13   0.00  -0.02
   9   8    -0.19   0.01  -0.03    -0.01  -0.01  -0.00    -0.30   0.01  -0.05
  10   1    -0.07  -0.01  -0.01     0.01   0.00   0.00    -0.11  -0.02  -0.02
  11   1    -0.16  -0.06  -0.02    -0.07  -0.03  -0.01     0.04  -0.05   0.01
  12   1    -0.37   0.21  -0.06    -0.13   0.09  -0.02    -0.11  -0.02  -0.02
  13   6    -0.17  -0.01  -0.07    -0.00   0.26  -0.01     0.08   0.00   0.09
  14   1    -0.22  -0.02   0.05     0.36  -0.05  -0.35     0.22  -0.00  -0.09
  15   1    -0.22   0.02   0.04    -0.35  -0.03   0.35     0.24   0.00  -0.10
  16   6     0.02   0.00  -0.04     0.00  -0.35   0.01     0.01   0.01   0.05
  17   1     0.00  -0.00  -0.01    -0.00   0.13  -0.00     0.01  -0.00  -0.04
  18   1    -0.02   0.00   0.01    -0.11   0.08   0.29     0.01  -0.01  -0.00
  19   1    -0.03  -0.00   0.01     0.11   0.07  -0.29     0.01   0.00   0.00
                     31                     32                     33
                        a                      a                      a 
 Frequencies --  1284.4443              1320.5943              1335.9142
 Red. masses --     3.3249                 5.7147                11.3375
 Frc consts  --     0.0000                 0.0000                 0.0000
 IR Inten    --    37.0781                 4.4400                27.0032
 Raman Activ --     0.0000                 0.0000                 0.0000
 Depolar     --     0.0000                 0.0000                 0.0000
 Atom AN      X      Y      Z        X      Y      Z        X      Y      Z
   1   6    -0.01   0.18  -0.01    -0.21  -0.03   0.03    -0.05   0.40  -0.01
   2   6    -0.13   0.11  -0.02    -0.11   0.03  -0.02     0.33  -0.18   0.05
   3   6    -0.10  -0.07  -0.02     0.08  -0.04   0.01    -0.33  -0.20  -0.05
   4   6    -0.03  -0.25  -0.00     0.11  -0.04   0.02     0.04   0.37   0.01
   5   6     0.11  -0.08   0.02     0.02   0.07   0.00     0.37  -0.16   0.06
   6   6     0.13   0.11   0.02    -0.04   0.01  -0.01    -0.36  -0.17  -0.06
   7   1    -0.30   0.17  -0.05     0.05   0.00   0.01     0.01   0.01   0.00
   8   1    -0.39  -0.22  -0.06     0.03   0.03   0.01    -0.02   0.00  -0.00
   9   8     0.06   0.08   0.01    -0.05   0.01  -0.01    -0.06  -0.03  -0.01
  10   1    -0.18  -0.07  -0.03    -0.04  -0.01  -0.01     0.12   0.06   0.02
  11   1     0.34   0.20   0.06     0.07   0.01   0.01     0.02   0.01   0.00
  12   1     0.39  -0.20   0.06     0.05  -0.04   0.02     0.03  -0.01   0.00
  13   6    -0.01  -0.01   0.01     0.52   0.00  -0.18     0.05  -0.02  -0.01
  14   1     0.19   0.01  -0.08    -0.40   0.04   0.30     0.11   0.02  -0.02
  15   1    -0.15   0.01   0.06    -0.39  -0.03   0.30    -0.15   0.01   0.07
  16   6     0.01  -0.07   0.00    -0.15  -0.00  -0.09    -0.01  -0.03  -0.00
  17   1     0.00   0.03  -0.01    -0.07   0.01   0.20    -0.00   0.01   0.01
  18   1    -0.02   0.01   0.05     0.07   0.05   0.01    -0.00   0.01   0.02
  19   1     0.01   0.01  -0.05     0.07  -0.05   0.01     0.01  -0.00  -0.02
                     34                     35                     36
                        a                      a                      a 
 Frequencies --  1404.2180              1427.6524              1483.5048
 Red. masses --     3.0363                 9.7204                 2.0481
 Frc consts  --     0.0000                 0.0000                 0.0000
 IR Inten    --     0.2490                27.7352                 7.1659
 Raman Activ --     0.0000                 0.0000                 0.0000
 Depolar     --     0.0000                 0.0000                 0.0000
 Atom AN      X      Y      Z        X      Y      Z        X      Y      Z
   1   6    -0.00  -0.00   0.01     0.01   0.41   0.00    -0.02  -0.00  -0.02
   2   6     0.02  -0.01   0.00    -0.31  -0.12  -0.05     0.03  -0.04   0.01
   3   6    -0.01   0.01  -0.00     0.33  -0.10   0.05     0.02   0.04   0.00
   4   6    -0.02  -0.00  -0.00    -0.00   0.38  -0.00    -0.04   0.00  -0.01
   5   6     0.00  -0.01  -0.00    -0.33  -0.10  -0.05     0.02  -0.04   0.00
   6   6     0.01   0.01   0.00     0.30  -0.12   0.05     0.03   0.04   0.01
   7   1    -0.01   0.00  -0.00     0.12  -0.16   0.02    -0.03   0.01  -0.01
   8   1    -0.01  -0.01   0.00    -0.10  -0.15  -0.02    -0.05  -0.02  -0.01
   9   8     0.01   0.00   0.00    -0.04  -0.09  -0.01     0.01  -0.00   0.00
  10   1    -0.00  -0.00   0.00     0.15   0.05   0.02     0.01   0.00   0.00
  11   1    -0.01   0.00  -0.00    -0.13  -0.16  -0.02    -0.03  -0.01  -0.01
  12   1    -0.01   0.01   0.00     0.13  -0.16   0.02    -0.06   0.02  -0.01
  13   6     0.05   0.00  -0.01    -0.00  -0.08  -0.00    -0.17  -0.01  -0.23
  14   1    -0.08  -0.03  -0.00     0.11   0.02  -0.02     0.28   0.41   0.44
  15   1    -0.07   0.02  -0.00    -0.12   0.02   0.02     0.28  -0.38   0.46
  16   6    -0.23   0.01   0.36    -0.00  -0.01   0.00     0.01   0.00   0.03
  17   1     0.05  -0.02  -0.52     0.00   0.01  -0.01    -0.00  -0.00  -0.00
  18   1     0.34  -0.15  -0.36     0.00  -0.00   0.00    -0.02  -0.06  -0.07
  19   1     0.34   0.13  -0.36     0.00   0.00  -0.01    -0.02   0.05  -0.08
                     37                     38                     39
                        a                      a                      a 
 Frequencies --  1493.6018              1493.7457              1504.4467
 Red. masses --     1.5864                 7.9295                 3.2931
 Frc consts  --     0.0000                 0.0000                 0.0000
 IR Inten    --     1.9550               124.0522                38.9386
 Raman Activ --     0.0000                 0.0000                 0.0000
 Depolar     --     0.0000                 0.0000                 0.0000
 Atom AN      X      Y      Z        X      Y      Z        X      Y      Z
   1   6    -0.03  -0.00  -0.01     0.35   0.01   0.05    -0.19  -0.01  -0.03
   2   6     0.01  -0.02   0.00    -0.16   0.21  -0.03     0.06  -0.10   0.01
   3   6     0.02   0.02   0.00    -0.20  -0.21  -0.03     0.11   0.10   0.02
   4   6    -0.04   0.00  -0.01     0.38  -0.02   0.06    -0.18   0.01  -0.03
   5   6     0.02  -0.02   0.00    -0.20   0.22  -0.03     0.11  -0.11   0.02
   6   6     0.02   0.02   0.00    -0.16  -0.22  -0.03     0.06   0.10   0.01
   7   1    -0.02   0.01  -0.00     0.18  -0.07   0.03    -0.09   0.04  -0.01
   8   1    -0.02  -0.01  -0.00     0.19   0.07   0.03    -0.09  -0.03  -0.01
   9   8     0.01  -0.00   0.00    -0.09   0.01  -0.01     0.04  -0.00   0.01
  10   1     0.00   0.00   0.00    -0.05  -0.01  -0.01     0.02   0.01   0.00
  11   1    -0.02  -0.01  -0.00     0.19   0.08   0.03    -0.09  -0.04  -0.01
  12   1    -0.01   0.00  -0.00     0.19  -0.07   0.03    -0.09   0.03  -0.01
  13   6     0.01   0.04   0.00    -0.09   0.00  -0.03     0.14   0.00   0.05
  14   1     0.01  -0.00  -0.03    -0.01   0.02   0.03    -0.06  -0.07  -0.05
  15   1    -0.01   0.00   0.02    -0.01  -0.02   0.03    -0.06   0.06  -0.05
  16   6    -0.01   0.21  -0.01     0.08   0.02   0.07     0.16   0.00   0.10
  17   1     0.00  -0.71   0.01    -0.01  -0.07   0.11    -0.03   0.01   0.30
  18   1    -0.44  -0.06   0.09    -0.20  -0.19  -0.18    -0.31  -0.34  -0.33
  19   1     0.47  -0.10  -0.05    -0.11   0.16  -0.20    -0.32   0.32  -0.35
                     40                     41                     42
                        a                      a                      a 
 Frequencies --  1587.5031              1613.3170              2972.8954
 Red. masses --    11.5468                11.5448                 1.9805
 Frc consts  --     0.0000                 0.0000                 0.0000
 IR Inten    --    19.6320                53.3751                57.5333
 Raman Activ --     0.0000                 0.0000                 0.0000
 Depolar     --     0.0000                 0.0000                 0.0000
 Atom AN      X      Y      Z        X      Y      Z        X      Y      Z
   1   6     0.00   0.50  -0.00    -0.30   0.03  -0.05     0.00  -0.01   0.00
   2   6     0.13  -0.28   0.02     0.44  -0.15   0.07     0.00   0.00   0.00
   3   6     0.15   0.31   0.02    -0.40  -0.10  -0.06    -0.00  -0.00  -0.00
   4   6    -0.02  -0.54  -0.00     0.24  -0.03   0.04    -0.00   0.00  -0.00
   5   6    -0.10   0.28  -0.02    -0.43   0.12  -0.07     0.00  -0.00   0.00
   6   6    -0.16  -0.28  -0.03     0.43   0.13   0.07    -0.00   0.00  -0.00
   7   1     0.06   0.02   0.01     0.07  -0.07   0.01     0.00   0.00   0.00
   8   1     0.08   0.00   0.01    -0.08  -0.07  -0.01     0.01  -0.01   0.00
   9   8     0.03   0.05   0.00    -0.02   0.01  -0.00     0.00   0.00  -0.00
  10   1    -0.09  -0.04  -0.01    -0.02  -0.01  -0.00     0.00  -0.00   0.00
  11   1    -0.08   0.01  -0.01     0.06   0.07   0.01    -0.00   0.00  -0.00
  12   1    -0.08  -0.01  -0.01    -0.09   0.07  -0.01    -0.01  -0.01  -0.00
  13   6     0.00  -0.04   0.00     0.05  -0.00   0.01     0.01  -0.30   0.01
  14   1     0.06   0.01  -0.01     0.01  -0.00  -0.01    -0.20   0.54  -0.39
  15   1    -0.07   0.01   0.01     0.00   0.01  -0.01     0.18   0.53   0.33
  16   6    -0.00  -0.00   0.00     0.01  -0.00  -0.01    -0.00   0.02  -0.00
  17   1     0.00  -0.00  -0.00    -0.00  -0.00   0.01     0.00   0.01   0.00
  18   1    -0.00  -0.00   0.00    -0.01  -0.00  -0.00     0.02  -0.06   0.04
  19   1     0.00  -0.00  -0.00    -0.01   0.00  -0.00    -0.02  -0.06  -0.04
                     43                     44                     45
                        a                      a                      a 
 Frequencies --  2984.6853              3029.6257              3030.9394
 Red. masses --     1.4761                 1.9558                 1.9501
 Frc consts  --     0.0000                 0.0000                 0.0000
 IR Inten    --    68.5480                80.3481                93.0891
 Raman Activ --     0.0000                 0.0000                 0.0000
 Depolar     --     0.0000                 0.0000                 0.0000
 Atom AN      X      Y      Z        X      Y      Z        X      Y      Z
   1   6    -0.00  -0.00  -0.00    -0.00  -0.00  -0.00     0.00  -0.00   0.00
   2   6     0.00   0.00   0.00     0.00   0.00   0.00     0.00  -0.00   0.00
   3   6    -0.00   0.00   0.00     0.00  -0.00   0.00    -0.00   0.00  -0.00
   4   6     0.00   0.00   0.00    -0.00   0.00  -0.00     0.00   0.00   0.00
   5   6    -0.00  -0.00   0.00     0.00  -0.00  -0.00    -0.00  -0.00  -0.00
   6   6     0.00  -0.00   0.00    -0.00   0.00  -0.00    -0.00   0.00   0.00
   7   1     0.00   0.00   0.00     0.00   0.00   0.00     0.00   0.00   0.00
   8   1    -0.01   0.01  -0.00     0.00  -0.00   0.00     0.00  -0.00   0.00
   9   8    -0.00  -0.00  -0.00     0.00   0.00   0.00    -0.00  -0.00  -0.00
  10   1     0.00   0.00  -0.00     0.00  -0.00  -0.00     0.00   0.00  -0.00
  11   1     0.00  -0.01   0.00    -0.00   0.00  -0.00     0.00  -0.01   0.00
  12   1    -0.01  -0.01  -0.00    -0.00  -0.00  -0.00    -0.00   0.00   0.00
  13   6    -0.10  -0.02  -0.18     0.00  -0.04   0.00    -0.01  -0.00  -0.02
  14   1     0.17  -0.55   0.33    -0.02   0.06  -0.04     0.01  -0.04   0.03
  15   1     0.18   0.61   0.33     0.02   0.05   0.03     0.02   0.06   0.03
  16   6     0.02   0.00   0.01     0.03  -0.29   0.02    -0.26  -0.04  -0.13
  17   1    -0.07  -0.00  -0.01    -0.08  -0.04  -0.01     0.80   0.00   0.11
  18   1    -0.00   0.03  -0.02    -0.20   0.56  -0.40     0.04  -0.23   0.13
  19   1    -0.01  -0.04  -0.02     0.17   0.50   0.32     0.07   0.36   0.20
                     46                     47                     48
                        a                      a                      a 
 Frequencies --  3039.6043              3062.5584              3074.5522
 Red. masses --     1.2430                 1.7868                 1.8145
 Frc consts  --     0.0000                 0.0000                 0.0000
 IR Inten    --    39.2585                51.9942               122.2270
 Raman Activ --     0.0000                 0.0000                 0.0000
 Depolar     --     0.0000                 0.0000                 0.0000
 Atom AN      X      Y      Z        X      Y      Z        X      Y      Z
   1   6     0.00   0.00   0.00     0.00   0.00   0.00     0.01  -0.00   0.00
   2   6     0.00   0.00   0.00     0.06   0.10   0.01    -0.05  -0.08  -0.01
   3   6    -0.00   0.00  -0.00     0.12  -0.21   0.02     0.03  -0.06   0.01
   4   6     0.00   0.00   0.00     0.01  -0.00   0.00     0.00   0.00   0.00
   5   6    -0.00  -0.00  -0.00    -0.01  -0.01  -0.00     0.03   0.05   0.00
   6   6     0.00  -0.00   0.00    -0.01   0.01  -0.00     0.12  -0.21   0.02
   7   1     0.00   0.00   0.00     0.02   0.04   0.00    -0.11  -0.19  -0.02
   8   1    -0.00   0.01  -0.00     0.02  -0.03   0.00    -0.42   0.73  -0.07
   9   8    -0.00  -0.00  -0.00    -0.00   0.00  -0.00    -0.00  -0.00  -0.00
  10   1    -0.00   0.00  -0.00    -0.00  -0.00  -0.00    -0.00   0.00  -0.00
  11   1     0.00  -0.00   0.00    -0.42   0.74  -0.07    -0.11   0.19  -0.02
  12   1    -0.00  -0.01  -0.00    -0.21  -0.39  -0.03     0.16   0.29   0.02
  13   6    -0.00   0.00   0.01    -0.00   0.00  -0.00     0.00  -0.00   0.00
  14   1    -0.00   0.01  -0.00     0.00  -0.00   0.00    -0.00   0.01  -0.01
  15   1    -0.00  -0.01  -0.00    -0.00  -0.00  -0.00     0.00   0.01   0.00
  16   6    -0.05   0.01   0.14    -0.00   0.00  -0.00    -0.00  -0.00  -0.00
  17   1     0.51   0.01   0.10     0.01   0.00   0.00     0.00  -0.00   0.00
  18   1    -0.16   0.47  -0.30     0.00  -0.00   0.00     0.00   0.00  -0.00
  19   1    -0.16  -0.51  -0.29    -0.00  -0.00  -0.00     0.00   0.01   0.00
                     49                     50                     51
                        a                      a                      a 
 Frequencies --  3079.1909              3097.6831              3461.6597
 Red. masses --     1.8527                 1.8613                 1.8668
 Frc consts  --     0.0000                 0.0000                 0.0000
 IR Inten    --    79.4012                74.3811               133.1750
 Raman Activ --     0.0000                 0.0000                 0.0000
 Depolar     --     0.0000                 0.0000                 0.0000
 Atom AN      X      Y      Z        X      Y      Z        X      Y      Z
   1   6    -0.01   0.00  -0.00     0.00   0.00   0.00    -0.00   0.00  -0.00
   2   6    -0.11  -0.20  -0.02     0.01   0.02   0.00     0.00  -0.00   0.00
   3   6     0.06  -0.10   0.01    -0.01   0.02  -0.00    -0.00   0.00  -0.00
   4   6     0.00   0.00   0.00    -0.01  -0.00  -0.00     0.01  -0.00   0.00
   5   6    -0.03  -0.05  -0.00    -0.13  -0.23  -0.02    -0.00  -0.00  -0.00
   6   6    -0.05   0.09  -0.01     0.04  -0.08   0.01    -0.00  -0.00  -0.00
   7   1     0.10   0.18   0.02     0.45   0.79   0.07     0.00   0.01   0.00
   8   1     0.18  -0.31   0.03    -0.14   0.24  -0.02     0.00   0.00   0.00
   9   8    -0.00   0.00  -0.00     0.00   0.00   0.00     0.09  -0.22   0.02
  10   1    -0.00  -0.00   0.00     0.00  -0.01   0.00    -0.39   0.89  -0.06
  11   1    -0.19   0.33  -0.03     0.04  -0.07   0.01     0.00   0.00   0.00
  12   1     0.37   0.68   0.06    -0.04  -0.07  -0.01    -0.00  -0.00  -0.00
  13   6    -0.00  -0.00  -0.00     0.00  -0.00   0.00     0.00  -0.00   0.00
  14   1     0.00  -0.01   0.00    -0.00   0.00  -0.00    -0.00   0.00  -0.00
  15   1     0.00   0.01   0.01    -0.00  -0.00  -0.00    -0.00  -0.00  -0.00
  16   6    -0.00  -0.00   0.00     0.00   0.00  -0.00    -0.00  -0.00  -0.00
  17   1     0.01   0.00   0.00    -0.01   0.00  -0.00    -0.00   0.00   0.00
  18   1    -0.00   0.01  -0.00     0.00  -0.00   0.00     0.00  -0.00  -0.00
  19   1    -0.00  -0.00  -0.00     0.00   0.00   0.00     0.00   0.00   0.00
