19
 energy: -26.295967091222 gnorm: 0.000505141607 xtb: 6.4.1 (afa7bdf)
C        -0.91364572411350   -0.01163259335943   -0.35571957351149
C        -0.19678332542409   -1.19392996318746   -0.23510289691154
C         1.16936732929961   -1.18392548397323   -0.01825084186047
C         1.84732567054237    0.02413506331121    0.08568360620245
C         1.13789512057564    1.21595821830018   -0.02722980897974
C        -0.22519797519896    1.19077323149139   -0.24421892736241
H         1.67534487525714    2.14783328684419    0.05612046048509
H        -0.76350737605694    2.12316127279096   -0.33210835643226
O         3.19243644767849    0.09328840349727    0.29407249751425
H         3.57106125907338   -0.79619628139820    0.35735077785712
H         1.70862902541113   -2.11663812390949    0.06863143398816
H        -0.71175384145192   -2.14028505342227   -0.31518943347217
C        -2.40308274119747   -0.02903966796386   -0.55440614593532
H        -2.70500037477767    0.83678331892402   -1.14654171288597
H        -2.69211114934434   -0.93150350228516   -1.09600650752446
C        -3.12936109597050    0.00460371536953    0.79251901854531
H        -4.20618186758129   -0.00558001098050    0.64366338976460
H        -2.85176933489308   -0.85885161598457    1.39264796102267
H        -2.86158225691340    0.90343202124625    1.34308499479311
