      -----------------------------------------------------------      
     |                   =====================                   |     
     |                           x T B                           |     
     |                   =====================                   |     
     |                         S. Grimme                         |     
     |          Mulliken Center for Theoretical Chemistry        |     
     |                    University of Bonn                     |     
      -----------------------------------------------------------      

   * xtb version 6.4.1 (afa7bdf) compiled by 'ehlert@majestix' on 2021-06-10

   xtb is free software: you can redistribute it and/or modify it under
   the terms of the GNU Lesser General Public License as published by
   the Free Software Foundation, either version 3 of the License, or
   (at your option) any later version.
   
   xtb is distributed in the hope that it will be useful,
   but WITHOUT ANY WARRANTY; without even the implied warranty of
   MERCHANTABILITY or FITNESS FOR A PARTICULAR PURPOSE.  See the
   GNU Lesser General Public License for more details.
   
   Cite this work as:
   * C. Bannwarth, E. Caldeweyher, S. Ehlert, A. Hansen, P. Pracht,
     J. Seibert, S. Spicher, S. Grimme, WIREs Comput. Mol. Sci., 2020, 11,
     e01493. DOI: 10.1002/wcms.1493
   
   for GFN2-xTB:
   * C. Bannwarth, S. Ehlert and S. Grimme., J. Chem. Theory Comput., 2019,
     15, 1652-1671. DOI: 10.1021/acs.jctc.8b01176
   for GFN1-xTB:
   * S. Grimme, C. Bannwarth, P. Shushkov, J. Chem. Theory Comput., 2017,
     13, 1989-2009. DOI: 10.1021/acs.jctc.7b00118
   for GFN0-xTB:
   * P. Pracht, E. Caldeweyher, S. Ehlert, S. Grimme, ChemRxiv, 2019, preprint.
     DOI: 10.26434/chemrxiv.8326202.v1
   for GFN-FF:
   * S. Spicher and S. Grimme, Angew. Chem. Int. Ed., 2020, 59, 15665-15673.
     DOI: 10.1002/anie.202004239
   
   for DFT-D4:
   * E. Caldeweyher, C. Bannwarth and S. Grimme, J. Chem. Phys., 2017,
     147, 034112. DOI: 10.1063/1.4993215
   * E. Caldeweyher, S. Ehlert, A. Hansen, H. Neugebauer, S. Spicher,
     C. Bannwarth and S. Grimme, J. Chem. Phys., 2019, 150, 154122.
     DOI: 10.1063/1.5090222
   * E. Caldeweyher, J.-M. Mewes, S. Ehlert and S. Grimme, Phys. Chem. Chem. Phys.
     2020, 22, 8499-8512. DOI: 10.1039/D0CP00502A
   
   for sTDA-xTB:
   * S. Grimme and C. Bannwarth, J. Chem. Phys., 2016, 145, 054103.
     DOI: 10.1063/1.4959605
   
   in the mass-spec context:
   * V. Asgeirsson, C. Bauer and S. Grimme, Chem. Sci., 2017, 8, 4879.
     DOI: 10.1039/c7sc00601b
   * J. Koopman and S. Grimme, ACS Omega 2019, 4, 12, 15120-15133.
     DOI: 10.1021/acsomega.9b02011
   
   for metadynamics refer to:
   * S. Grimme, J. Chem. Theory Comput., 2019, 155, 2847-2862
     DOI: 10.1021/acs.jctc.9b00143
   
   for SPH calculations refer to:
   * S. Spicher and S. Grimme, J. Chem. Theory Comput., 2021, 17, 1701-1714
     DOI: 10.1021/acs.jctc.0c01306
   
   with help from (in alphabetical order)
   P. Atkinson, C. Bannwarth, F. Bohle, G. Brandenburg, E. Caldeweyher
   M. Checinski, S. Dohm, S. Ehlert, S. Ehrlich, I. Gerasimov, J. Koopman
   C. Lavigne, S. Lehtola, F. März, M. Müller, F. Musil, H. Neugebauer
   J. Pisarek, C. Plett, P. Pracht, J. Seibert, P. Shushkov, S. Spicher
   M. Stahn, M. Steiner, T. Strunk, J. Stückrath, T. Rose, and J. Unsleber
   
 * started run on 2021/11/15 at 09:36:23.175     

           -------------------------------------------------
          |                Calculation Setup                |
           -------------------------------------------------

          program call               : xtb 38_anisole.xyz --gfn2 --chrg 0 --uhf 0 --alpb water --ohess -P 1
          coordinate file            : 38_anisole.xyz
          omp threads                :                     1
          number of atoms            :                    16
          number of electrons        :                    42
          charge                     :                     0
          spin                       :                   0.0
          first test random number   :      0.41225148879056

   ID    Z sym.   atoms
    1    6 C      1-6, 10
    2    1 H      7, 8, 11-16
    3    8 O      9

           -------------------------------------------------
          |                 G F N 2 - x T B                 |
           -------------------------------------------------

        Reference                      10.1021/acs.jctc.8b01176
      * Hamiltonian:
        H0-scaling (s, p, d)           1.850000    2.230000    2.230000
        zeta-weighting                 0.500000
      * Dispersion:
        s8                             2.700000
        a1                             0.520000
        a2                             5.000000
        s9                             5.000000
      * Repulsion:
        kExp                           1.500000    1.000000
        rExp                           1.000000
      * Coulomb:
        alpha                          2.000000
        third order                    shell-resolved
        anisotropic                    true
        a3                             3.000000
        a5                             4.000000
        cn-shift                       1.200000
        cn-exp                         4.000000
        max-rad                        5.000000

      * Solvation model:               ALPB
        Solvent                        water
        Parameter file                 internal GFN2-xTB/ALPB
        Dielectric constant                8.0200E+01
        Reference state                gsolv [1 M gas/solution]
        Free energy shift                  1.0808E-03 Eh       6.7819E-01 kcal/mol
        Temperature                        2.9815E+02 K
        Density                            1.0000E+00 kg/L
        Solvent mass                       1.8000E+01 g/mol
        Interaction kernel             P16
        Born radius scaling (c1)           1.4744E+00
        Born radii integrator          GBOBC
        Born offset                        0.0000E+00 a0       0.0000E+00 AA
        H-bond correction              true
        Ion screening                  false
        Surface tension                    1.0000E-05 Eh       1.5569E+01 dyn/cm
        Grid points                               230 per atom

          ...................................................
          :                      SETUP                      :
          :.................................................:
          :  # basis functions                  40          :
          :  # atomic orbitals                  40          :
          :  # shells                           24          :
          :  # electrons                        42          :
          :  max. iterations                   250          :
          :  Hamiltonian                  GFN2-xTB          :
          :  restarted?                      false          :
          :  GBSA solvation                   true          :
          :  PC potential                    false          :
          :  electronic temp.          300.0000000     K    :
          :  accuracy                    1.0000000          :
          :  -> integral cutoff          0.2500000E+02      :
          :  -> integral neglect         0.1000000E-07      :
          :  -> SCF convergence          0.1000000E-05 Eh   :
          :  -> wf. convergence          0.1000000E-03 e    :
          :  Broyden damping             0.4000000          :
          ...................................................

 iter      E             dE          RMSdq      gap      omega  full diag
   1    -23.4421545 -0.234422E+02  0.486E+00    4.25       0.0  T
   2    -23.4612942 -0.191397E-01  0.277E+00    4.21       1.0  T
   3    -23.4580783  0.321589E-02  0.959E-01    4.14       1.0  T
   4    -23.4628951 -0.481677E-02  0.283E-01    4.17       1.0  T
   5    -23.4633346 -0.439514E-03  0.731E-02    4.20       1.0  T
   6    -23.4633397 -0.507656E-05  0.392E-02    4.19       1.0  T
   7    -23.4633440 -0.429686E-05  0.133E-02    4.20       1.9  T
   8    -23.4633444 -0.375426E-06  0.349E-03    4.19       7.2  T
   9    -23.4633444 -0.167683E-07  0.159E-03    4.19      15.7  T
  10    -23.4633444 -0.134901E-07  0.827E-04    4.20      30.2  T
  11    -23.4633444 -0.226198E-08  0.200E-04    4.19     125.1  T

   *** convergence criteria satisfied after 11 iterations ***

         #    Occupation            Energy/Eh            Energy/eV
      -------------------------------------------------------------
         1        2.0000           -0.7149431             -19.4546
       ...           ...                  ...                  ...
        15        2.0000           -0.4750519             -12.9268
        16        2.0000           -0.4602340             -12.5236
        17        2.0000           -0.4455933             -12.1252
        18        2.0000           -0.4338829             -11.8066
        19        2.0000           -0.4195984             -11.4179
        20        2.0000           -0.4024527             -10.9513
        21        2.0000           -0.3788325             -10.3086 (HOMO)
        22                         -0.2246691              -6.1136 (LUMO)
        23                         -0.2145987              -5.8395
        24                         -0.0929026              -2.5280
        25                          0.0189228               0.5149
        26                          0.1069907               2.9114
       ...                                ...                  ...
        40                          0.6483426              17.6423
      -------------------------------------------------------------
                  HL-Gap            0.1541634 Eh            4.1950 eV
             Fermi-level           -0.3017508 Eh           -8.2111 eV

 SCC (total)                   0 d,  0 h,  0 min,  0.008 sec
 SCC setup                      ...        0 min,  0.000 sec (  4.942%)
 Dispersion                     ...        0 min,  0.000 sec (  1.333%)
 classical contributions        ...        0 min,  0.000 sec (  0.287%)
 integral evaluation            ...        0 min,  0.001 sec ( 15.520%)
 iterations                     ...        0 min,  0.004 sec ( 45.413%)
 molecular gradient             ...        0 min,  0.003 sec ( 30.455%)
 printout                       ...        0 min,  0.000 sec (  1.743%)

         :::::::::::::::::::::::::::::::::::::::::::::::::::::
         ::                     SUMMARY                     ::
         :::::::::::::::::::::::::::::::::::::::::::::::::::::
         :: total energy             -23.114939507440 Eh    ::
         :: total w/o Gsasa/hb       -23.114424748349 Eh    ::
         :: gradient norm              0.019320456423 Eh/a0 ::
         :: HOMO-LUMO gap              4.194999506960 eV    ::
         ::.................................................::
         :: SCC energy               -23.463344405995 Eh    ::
         :: -> isotropic ES            0.019578041112 Eh    ::
         :: -> anisotropic ES          0.003382654862 Eh    ::
         :: -> anisotropic XC          0.011214550854 Eh    ::
         :: -> dispersion             -0.011440447946 Eh    ::
         :: -> Gsolv                  -0.003245031722 Eh    ::
         ::    -> Gelec               -0.002730272631 Eh    ::
         ::    -> Gsasa               -0.000681703485 Eh    ::
         ::    -> Ghb                 -0.000913815304 Eh    ::
         ::    -> Gshift               0.001080759698 Eh    ::
         :: repulsion energy           0.348392063839 Eh    ::
         :: add. restraining           0.000000000000 Eh    ::
         :: total charge               0.000000000000 e     ::
         :::::::::::::::::::::::::::::::::::::::::::::::::::::

      ----------------------------------------------------------- 
     |                   =====================                   |
     |                        A N C O P T                        |
     |                   =====================                   |
     |               Approximate Normal Coordinate               |
     |                Rational Function Optimizer                |
      ----------------------------------------------------------- 

          ...................................................
          :                      SETUP                      :
          :.................................................:
          :   optimization level            normal          :
          :   max. optcycles                   200          :
          :   ANC micro-cycles                  20          :
          :   degrees of freedom                42          :
          :.................................................:
          :   RF solver                   davidson          :
          :   write xtbopt.log                true          :
          :   linear?                        false          :
          :   energy convergence         0.5000000E-05 Eh   :
          :   grad. convergence          0.1000000E-02 Eh/α :
          :   maximium RF displ.         1.0000000          :
          :   Hlow (freq-cutoff)         0.1000000E-01      :
          :   Hmax (freq-cutoff)         5.0000000          :
          :   S6 in model hess.         20.0000000          :
          ...................................................

generating ANC from model Hessian ...
Using Lindh-Hessian (1995)
 Shifting diagonal of input Hessian by   7.066379611990289E-003
 Lowest  eigenvalues of input Hessian
    0.000000    0.000000    0.000000    0.000000    0.000000    0.000000
    0.010000    0.012272    0.015561    0.021488    0.023099    0.032042
    0.035531    0.044239    0.071481    0.073591    0.076448    0.100971
 Highest eigenvalues
    1.454971    1.581611    1.725733    1.861264    1.972309    2.052958
 

........................................................................
.............................. CYCLE    1 ..............................
........................................................................
   1    -23.4633444 -0.234633E+02  0.102E-04    4.20       0.0  T
   2    -23.4633444 -0.211244E-10  0.659E-05    4.20     379.5  T
   3    -23.4633444 -0.555644E-11  0.463E-05    4.20     539.4  T
     SCC iter.                  ...        0 min,  0.001 sec
     gradient                   ...        0 min,  0.002 sec
 * total energy  :   -23.1149395 Eh     change       -0.1259579E-09 Eh
   gradient norm :     0.0193210 Eh/α   predicted     0.0000000E+00 (-100.00%)
   displ. norm   :     0.0877369 α      lambda       -0.1217069E-02
   maximum displ.:     0.0536270 α      in ANC's #24, #8, #3, ...

........................................................................
.............................. CYCLE    2 ..............................
........................................................................
   1    -23.4779798 -0.234780E+02  0.996E-02    4.26       0.0  T
   2    -23.4779807 -0.959061E-06  0.597E-02    4.26       1.0  T
   3    -23.4779805  0.211923E-06  0.729E-03    4.26       3.4  T
   4    -23.4779811 -0.566075E-06  0.253E-03    4.26       9.9  T
   5    -23.4779811 -0.152773E-07  0.124E-03    4.26      20.2  T
   6    -23.4779811 -0.316420E-08  0.663E-04    4.26      37.7  T
   7    -23.4779811 -0.177628E-08  0.277E-04    4.26      90.3  T
     SCC iter.                  ...        0 min,  0.003 sec
     gradient                   ...        0 min,  0.002 sec
 * total energy  :   -23.1156532 Eh     change       -0.7137346E-03 Eh
   gradient norm :     0.0039591 Eh/α   predicted    -0.6132195E-03 ( -14.08%)
   displ. norm   :     0.0301449 α      lambda       -0.5466549E-04
   maximum displ.:     0.0235167 α      in ANC's #3, #8, #24, ...

........................................................................
.............................. CYCLE    3 ..............................
........................................................................
   1    -23.4808333 -0.234808E+02  0.268E-02    4.27       0.0  T
   2    -23.4808334 -0.957020E-07  0.159E-02    4.27       1.6  T
   3    -23.4808334  0.634792E-08  0.221E-03    4.27      11.3  T
   4    -23.4808334 -0.423378E-07  0.897E-04    4.27      27.9  T
   5    -23.4808334 -0.241674E-08  0.449E-04    4.27      55.7  T
     SCC iter.                  ...        0 min,  0.002 sec
     gradient                   ...        0 min,  0.003 sec
 * total energy  :   -23.1156835 Eh     change       -0.3027505E-04 Eh
   gradient norm :     0.0012695 Eh/α   predicted    -0.2735727E-04 (  -9.64%)
   displ. norm   :     0.0199562 α      lambda       -0.4130950E-05
   maximum displ.:     0.0190479 α      in ANC's #3, #8, #9, ...

........................................................................
.............................. CYCLE    4 ..............................
........................................................................
   1    -23.4809006 -0.234809E+02  0.128E-02    4.27       0.0  T
   2    -23.4809007 -0.550444E-07  0.769E-03    4.27       3.3  T
   3    -23.4809007  0.161230E-07  0.162E-03    4.27      15.4  T
   4    -23.4809007 -0.293462E-07  0.531E-04    4.27      47.1  T
   5    -23.4809007 -0.115426E-08  0.279E-04    4.27      89.7  T
     SCC iter.                  ...        0 min,  0.002 sec
     gradient                   ...        0 min,  0.003 sec
 * total energy  :   -23.1156870 Eh     change       -0.3444808E-05 Eh
   gradient norm :     0.0004434 Eh/α   predicted    -0.2065913E-05 ( -40.03%)
   displ. norm   :     0.0050033 α      lambda       -0.5325699E-06
   maximum displ.:     0.0044957 α      in ANC's #3, #24, #21, ...

   *** GEOMETRY OPTIMIZATION CONVERGED AFTER 4 ITERATIONS ***

------------------------------------------------------------------------
 total energy gain   :        -0.0007475 Eh       -0.4690 kcal/mol
 total RMSD          :         0.0319866 a0        0.0169 Å
 total power (kW/mol):        -0.4906105 (step)  -39.3669 (real)
------------------------------------------------------------------------

 ANCopt (total)                0 d,  0 h,  0 min,  0.050 sec
 optimizer setup                ...        0 min,  0.000 sec (  0.403%)
 model hessian                  ...        0 min,  0.001 sec (  2.958%)
 ANC generation                 ...        0 min,  0.000 sec (  0.532%)
 coordinate transformation      ...        0 min,  0.000 sec (  0.064%)
 single point calculation       ...        0 min,  0.024 sec ( 48.327%)
 optimization log               ...        0 min,  0.023 sec ( 46.166%)
 hessian update                 ...        0 min,  0.000 sec (  0.057%)
 rational function              ...        0 min,  0.000 sec (  0.955%)

================
 final structure:
================
16
 xtb: 6.4.1 (afa7bdf)
C        -0.02438016519627    1.06057251322357    0.00014166726434
C        -0.44905104555428   -0.26281738073834    0.00009902693332
C         0.49899672957961   -1.28676463691884   -0.00001281680271
C         1.84566423111958   -0.98848059935184   -0.00013259456942
C         2.26974761214581    0.33174948062829   -0.00012719369990
C         1.33148793031408    1.34658558017564    0.00003447296524
H         1.65004508068911    2.37804154093942    0.00006487375544
H        -0.73424244156025    1.87188649874113    0.00027681842467
O        -1.75487589210894   -0.66505941126091    0.00019801103520
C        -2.76870869650517    0.32149098531870   -0.00044439611231
H        -2.71093057698502    0.94670898253363   -0.89515543616867
H        -3.70498151857423   -0.23181031047681   -0.00069842593187
H        -2.71169832858427    0.94714493615451    0.89401176360336
H         0.14931895406205   -2.30705188692512   -0.00001973020235
H         3.32300208211176    0.56450081858537   -0.00025834857897
H         2.56838204504645   -1.78988211062839   -0.00026869191539
 
 Bond Distances (Angstroems)
 ---------------------------
C1-C2=1.3899         C1-C6=1.3857         C1-H8=1.0780         C2-C1=1.3899         C2-C3=1.3954         C2-O9=1.3664         
C3-C2=1.3954         C3-C4=1.3793         C3-H14=1.0785        C4-C3=1.3793         C4-C5=1.3867         C4-H16=1.0792        
C5-C4=1.3867         C5-C6=1.3821         C5-H15=1.0787        C6-C1=1.3857         C6-C5=1.3821         C6-H7=1.0795         
H7-C6=1.0795         H8-C1=1.0780         O9-C2=1.3664         O9-C10=1.4146        C10-O9=1.4146        C10-H11=1.0930       
C10-H12=1.0875       C10-H13=1.0930       H11-C10=1.0930       H12-C10=1.0875       H13-C10=1.0930       H14-C3=1.0785        
H15-C5=1.0787        H16-C4=1.0792        
 C  H  Rav=1.0834 sigma=0.0062  Rmin=1.0780  Rmax=1.0930     8
 C  C  Rav=1.3865 sigma=0.0052  Rmin=1.3793  Rmax=1.3954     6
 O  C  Rav=1.3905 sigma=0.0241  Rmin=1.3664  Rmax=1.4146     2
 
 selected bond angles (degree)
 --------------------
C6-C1-C2=119.70                H8-C1-C2=121.02                H8-C1-C6=119.27                C3-C2-C1=119.41                
O9-C2-C1=124.91                O9-C2-C3=115.68                C4-C3-C2=120.31                H14-C3-C2=118.29               
H14-C3-C4=121.41               C5-C4-C3=120.30                H16-C4-C3=119.56               H16-C4-C5=120.15               
C6-C5-C4=119.44                H15-C5-C4=120.27               H15-C5-C6=120.29               C5-C6-C1=120.84                
H7-C6-C1=119.07                H7-C6-C5=120.08                C10-O9-C2=118.66               H11-C10-O9=111.19              
H12-C10-O9=105.20              H12-C10-H11=109.65             H13-C10-O9=111.19              H13-C10-H11=109.86             
H13-C10-H12=109.65             
 
 selected dihedral angles (degree)
 ---------------------------------
C3-C2-C1-C6=  0.00            C3-C2-C1-H8=180.00            O9-C2-C1-C6=180.00            O9-C2-C1-H8=  0.00            
C4-C3-C2-C1=  0.00            C4-C3-C2-O9=180.00            H14-C3-C2-C1=180.00           H14-C3-C2-O9=  0.00           
C5-C4-C3-C2=  0.00            C5-C4-C3-H14=180.00           H16-C4-C3-C2=180.00           H16-C4-C3-H14=  0.00          
C6-C5-C4-C3=  0.00            C6-C5-C4-H16=180.00           H15-C5-C4-C3=180.00           H15-C5-C4-H16=  0.00          
C5-C6-C1-C2=  0.00            C5-C6-C1-H8=180.00            H7-C6-C1-C2=180.00            H7-C6-C1-H8=  0.00            
C1-C6-C5-C4=  0.00            C1-C6-C5-H15=180.00           H7-C6-C5-C4=180.00            H7-C6-C5-H15=  0.00           
C10-O9-C2-C1=  0.04           C10-O9-C2-C3=180.04           H11-C10-O9-C2= 61.35          H12-C10-O9-C2=179.97          
H13-C10-O9-C2=298.60          
           -------------------------------------------------
          |                Final Singlepoint                |
           -------------------------------------------------

          ...................................................
          :                      SETUP                      :
          :.................................................:
          :  # basis functions                  40          :
          :  # atomic orbitals                  40          :
          :  # shells                           24          :
          :  # electrons                        42          :
          :  max. iterations                   250          :
          :  Hamiltonian                  GFN2-xTB          :
          :  restarted?                      false          :
          :  GBSA solvation                   true          :
          :  PC potential                    false          :
          :  electronic temp.          300.0000000     K    :
          :  accuracy                    1.0000000          :
          :  -> integral cutoff          0.2500000E+02      :
          :  -> integral neglect         0.1000000E-07      :
          :  -> SCF convergence          0.1000000E-05 Eh   :
          :  -> wf. convergence          0.1000000E-03 e    :
          :  Broyden damping             0.4000000          :
          ...................................................

 iter      E             dE          RMSdq      gap      omega  full diag
   1    -23.4809007 -0.234809E+02  0.176E-04    4.27       0.0  T
   2    -23.4809007 -0.788383E-10  0.125E-04    4.27     200.8  T
   3    -23.4809007 -0.352216E-10  0.911E-05    4.27     274.4  T

   *** convergence criteria satisfied after 3 iterations ***

         #    Occupation            Energy/Eh            Energy/eV
      -------------------------------------------------------------
         1        2.0000           -0.7161676             -19.4879
       ...           ...                  ...                  ...
        15        2.0000           -0.4757889             -12.9469
        16        2.0000           -0.4599397             -12.5156
        17        2.0000           -0.4465501             -12.1512
        18        2.0000           -0.4335131             -11.7965
        19        2.0000           -0.4190783             -11.4037
        20        2.0000           -0.4040981             -10.9961
        21        2.0000           -0.3793588             -10.3229 (HOMO)
        22                         -0.2224321              -6.0527 (LUMO)
        23                         -0.2128704              -5.7925
        24                         -0.0877966              -2.3891
        25                          0.0271124               0.7378
        26                          0.1166115               3.1732
       ...                                ...                  ...
        40                          0.6743340              18.3496
      -------------------------------------------------------------
                  HL-Gap            0.1569267 Eh            4.2702 eV
             Fermi-level           -0.3008954 Eh           -8.1878 eV

 SCC (total)                   0 d,  0 h,  0 min,  0.006 sec
 SCC setup                      ...        0 min,  0.000 sec (  5.114%)
 Dispersion                     ...        0 min,  0.000 sec (  0.587%)
 classical contributions        ...        0 min,  0.000 sec (  0.194%)
 integral evaluation            ...        0 min,  0.001 sec ( 20.690%)
 iterations                     ...        0 min,  0.001 sec ( 25.838%)
 molecular gradient             ...        0 min,  0.003 sec ( 44.776%)
 printout                       ...        0 min,  0.000 sec (  2.443%)

         :::::::::::::::::::::::::::::::::::::::::::::::::::::
         ::                     SUMMARY                     ::
         :::::::::::::::::::::::::::::::::::::::::::::::::::::
         :: total energy             -23.115686962318 Eh    ::
         :: total w/o Gsasa/hb       -23.115165869190 Eh    ::
         :: gradient norm              0.000443130859 Eh/a0 ::
         :: HOMO-LUMO gap              4.270192181721 eV    ::
         ::.................................................::
         :: SCC energy               -23.480900700380 Eh    ::
         :: -> isotropic ES            0.019467335474 Eh    ::
         :: -> anisotropic ES          0.003036731669 Eh    ::
         :: -> anisotropic XC          0.010584797703 Eh    ::
         :: -> dispersion             -0.011474825944 Eh    ::
         :: -> Gsolv                  -0.003168854353 Eh    ::
         ::    -> Gelec               -0.002647761226 Eh    ::
         ::    -> Gsasa               -0.000700338513 Eh    ::
         ::    -> Ghb                 -0.000901514312 Eh    ::
         ::    -> Gshift               0.001080759698 Eh    ::
         :: repulsion energy           0.365201104651 Eh    ::
         :: add. restraining           0.000000000000 Eh    ::
         :: total charge               0.000000000000 e     ::
         :::::::::::::::::::::::::::::::::::::::::::::::::::::

           ------------------------------------------------- 
          |                Numerical Hessian                |
           ------------------------------------------------- 
step length          :   0.00500
SCC accuracy         :   0.30000
Hessian scale factor :   1.00000
frozen atoms in %    :   0.00000    0
RMS gradient         :   0.00044
estimated CPU  time      0.01 min
estimated wall time      0.01 min

writing file <hessian>.

 projected vibrational frequencies (cm⁻¹)
eigval :       -0.00    -0.00    -0.00     0.00     0.00     0.00
eigval :       93.56   198.45   244.17   254.61   381.04   422.06
eigval :      482.90   529.02   587.61   657.08   755.15   786.49
eigval :      860.67   880.15   919.20   923.84   975.17  1044.37
eigval :     1080.00  1111.45  1115.37  1150.91  1175.41  1186.37
eigval :     1230.64  1279.08  1329.33  1388.88  1437.62  1460.23
eigval :     1467.40  1473.83  1587.42  1600.82  2944.61  2957.09
eigval :     3035.08  3079.66  3083.69  3096.14  3103.96  3109.66
           -------------------------------------------------
          |                Property Printout                |
           -------------------------------------------------

    * Orbital Energies and Occupations

         #    Occupation            Energy/Eh            Energy/eV
      -------------------------------------------------------------
         1        2.0000           -0.7161681             -19.4879
       ...           ...                  ...                  ...
         9        2.0000           -0.5515006             -15.0071
        10        2.0000           -0.5349345             -14.5563
        11        2.0000           -0.5128082             -13.9542
        12        2.0000           -0.4924632             -13.4006
        13        2.0000           -0.4819269             -13.1139
        14        2.0000           -0.4813400             -13.0979
        15        2.0000           -0.4757887             -12.9469
        16        2.0000           -0.4599406             -12.5156
        17        2.0000           -0.4465506             -12.1513
        18        2.0000           -0.4335130             -11.7965
        19        2.0000           -0.4190782             -11.4037
        20        2.0000           -0.4040980             -10.9961
        21        2.0000           -0.3793590             -10.3229 (HOMO)
        22                         -0.2224319              -6.0527 (LUMO)
        23                         -0.2128703              -5.7925
        24                         -0.0877965              -2.3891
        25                          0.0271118               0.7377
        26                          0.1166110               3.1731
        27                          0.1179561               3.2097
        28                          0.1481737               4.0320
        29                          0.1624666               4.4209
        30                          0.1801126               4.9011
        31                          0.1927528               5.2451
        32                          0.2054035               5.5893
       ...                                ...                  ...
        40                          0.6743342              18.3496
      -------------------------------------------------------------
                  HL-Gap            0.1569270 Eh            4.2702 eV
             Fermi-level           -0.3008954 Eh           -8.1878 eV

     #   Z          covCN         q      C6AA      α(0)
     1   6 C        2.917    -0.071    29.773     8.948
     2   6 C        2.864     0.140    24.948     8.187
     3   6 C        2.921    -0.062    29.530     8.911
     4   6 C        2.920    -0.035    28.878     8.812
     5   6 C        2.918    -0.048    29.195     8.860
     6   6 C        2.922    -0.037    28.920     8.819
     7   1 H        0.926     0.042     2.425     2.435
     8   1 H        0.926     0.043     2.405     2.425
     9   8 O        1.704    -0.308    19.133     5.906
    10   6 C        3.641     0.023    20.535     6.516
    11   1 H        0.924     0.053     2.287     2.365
    12   1 H        0.925     0.078     1.996     2.209
    13   1 H        0.924     0.053     2.287     2.365
    14   1 H        0.926     0.046     2.371     2.408
    15   1 H        0.926     0.040     2.453     2.449
    16   1 H        0.926     0.043     2.404     2.425

 Mol. C6AA /au·bohr⁶  :       2815.549340
 Mol. C8AA /au·bohr⁸  :      66751.227552
 Mol. α(0) /au        :         84.040728


Wiberg/Mayer (AO) data.
largest (>0.10) Wiberg bond orders for each atom

 ---------------------------------------------------------------------------
     #   Z sym  total        # sym  WBO       # sym  WBO       # sym  WBO
 ---------------------------------------------------------------------------
     1   6 C    3.987 --     6 C    1.435     2 C    1.380     8 H    0.966
                             4 C    0.105
     2   6 C    3.932 --     1 C    1.380     3 C    1.352     9 O    1.052
     3   6 C    3.988 --     4 C    1.469     2 C    1.352    14 H    0.969
                             6 C    0.111
     4   6 C    3.991 --     3 C    1.469     5 C    1.419    16 H    0.970
                             1 C    0.105
     5   6 C    3.991 --     6 C    1.448     4 C    1.419    15 H    0.971
     6   6 C    3.992 --     5 C    1.448     1 C    1.435     7 H    0.971
                             3 C    0.111
     7   1 H    0.998 --     6 C    0.971
     8   1 H    0.998 --     1 C    0.966
     9   8 O    2.203 --     2 C    1.052    10 C    0.972
    10   6 C    3.933 --    12 H    0.978    11 H    0.977    13 H    0.977
                             9 O    0.972
    11   1 H    0.997 --    10 C    0.977
    12   1 H    0.993 --    10 C    0.978
    13   1 H    0.997 --    10 C    0.977
    14   1 H    0.998 --     3 C    0.969
    15   1 H    0.998 --     5 C    0.971
    16   1 H    0.998 --     4 C    0.970
 ---------------------------------------------------------------------------

Topologies differ in total number of bonds
Writing topology from bond orders to xtbtopo.mol

molecular dipole:
                 x           y           z       tot (Debye)
 q only:       -0.242       0.471      -0.000
   full:       -0.291       0.574      -0.000       1.634
molecular quadrupole (traceless):
                xx          xy          yy          xz          yz          zz
 q only:        4.446      -3.214      -1.190       0.002       0.000      -3.256
  q+dip:        4.607      -3.257       0.862       0.001       0.001      -5.469
   full:        4.036      -3.587      -0.547       0.002       0.001      -3.488

           -------------------------------------------------
          |                Geometry Summary                 |
           -------------------------------------------------

      molecular mass/u    :      108.1380822
   center of mass at/Å    :        0.0204256      -0.0182035      -0.0000389
  moments of inertia/u·Å² :        0.9884331E+02   0.3222825E+03   0.4178993E+03
rotational constants/cm⁻¹ :        0.1705491E+00   0.5230700E-01   0.4033898E-01

 * 16 selected distances

     #   Z          #   Z                                           value/Å
     1   6 C        2   6 C                                       1.3898583
     2   6 C        3   6 C                                       1.3954435
     3   6 C        4   6 C                                       1.3793066
     4   6 C        5   6 C                                       1.3866702
     1   6 C        6   6 C                                       1.3857062
     5   6 C        6   6 C                                       1.3821084
     6   6 C        7   1 H                                       1.0795277
     1   6 C        8   1 H                                       1.0780236 (min)
     2   6 C        9   8 O                                       1.3663737
     9   8 O       10   6 C                                       1.4146162 (max)
    10   6 C       11   1 H                                       1.0930433
    10   6 C       12   1 H                                       1.0875427
    10   6 C       13   1 H                                       1.0930439
     3   6 C       14   1 H                                       1.0785456
     5   6 C       15   1 H                                       1.0786650
     4   6 C       16   1 H                                       1.0791503

 * 3 distinct bonds (by element types)

   Z      Z             #   av. dist./Å        max./Å        min./Å
   1 H    6 C           8     1.0834428     1.0930439     1.0780236
   6 C    6 C           6     1.3865155     1.3954435     1.3793066
   6 C    8 O           2     1.3904950     1.4146162     1.3663737

           -------------------------------------------------
          |               Frequency Printout                |
           -------------------------------------------------
 projected vibrational frequencies (cm⁻¹)
eigval :       -0.00    -0.00    -0.00     0.00     0.00     0.00
eigval :       93.56   198.45   244.17   254.61   381.04   422.06
eigval :      482.90   529.02   587.61   657.08   755.15   786.49
eigval :      860.67   880.15   919.20   923.84   975.17  1044.37
eigval :     1080.00  1111.45  1115.37  1150.91  1175.41  1186.37
eigval :     1230.64  1279.08  1329.33  1388.88  1437.62  1460.23
eigval :     1467.40  1473.83  1587.42  1600.82  2944.61  2957.09
eigval :     3035.08  3079.66  3083.69  3096.14  3103.96  3109.66
 reduced masses (amu)
   1: 10.97   2: 11.33   3: 11.91   4: 11.21   5: 11.37   6:  9.97   7:  9.89   8:  6.82
   9:  9.21  10:  6.17  11:  8.96  12: 11.14  13:  9.49  14: 11.82  15: 11.23  16:  9.97
  17:  4.33  18: 11.50  19:  3.34  20:  3.63  21:  3.90  22:  2.97  23: 10.88  24: 12.62
  25:  6.16  26:  4.41  27:  3.71  28:  4.61  29:  1.80  30:  3.60  31:  9.03  32:  3.65
  33: 11.91  34:  2.49  35:  8.84  36:  1.54  37:  7.80  38:  2.95  39: 11.55  40: 11.49
  41:  1.96  42:  1.44  43:  1.70  44:  1.77  45:  1.79  46:  1.86  47:  1.87  48:  1.88
 IR intensities (km·mol⁻¹)
   1:  0.19   2:  0.21   3:  0.04   4:  0.17   5:  0.07   6:  0.70   7:  5.75   8:  1.76
   9:  2.79  10:  2.21  11:  0.00  12:  0.14  13:  0.00  14: 13.27  15:  0.38  16:  0.01
  17: 56.11  18: 63.56  19:  0.01  20:  1.70  21:  0.05  22:  0.01  23:  5.99  24: 77.67
  25:  0.91  26:  2.77  27:  2.88  28:  6.34  29: 14.43  30:113.66  31:329.79  32:  5.49
  33: 29.33  34:  0.73  35: 11.33  36:  6.97  37:132.76  38:  2.60  39: 33.33  40: 98.09
  41: 47.67  42: 46.11  43: 17.93  44: 20.11  45: 40.31  46:150.20  47:126.39  48: 11.18
 Raman intensities (amu)
   1:  0.00   2:  0.00   3:  0.00   4:  0.00   5:  0.00   6:  0.00   7:  0.00   8:  0.00
   9:  0.00  10:  0.00  11:  0.00  12:  0.00  13:  0.00  14:  0.00  15:  0.00  16:  0.00
  17:  0.00  18:  0.00  19:  0.00  20:  0.00  21:  0.00  22:  0.00  23:  0.00  24:  0.00
  25:  0.00  26:  0.00  27:  0.00  28:  0.00  29:  0.00  30:  0.00  31:  0.00  32:  0.00
  33:  0.00  34:  0.00  35:  0.00  36:  0.00  37:  0.00  38:  0.00  39:  0.00  40:  0.00
  41:  0.00  42:  0.00  43:  0.00  44:  0.00  45:  0.00  46:  0.00  47:  0.00  48:  0.00
 output can be read by thermo (or use thermo option).
 writing <g98.out> molden fake output.
 recommended (thermochemical) frequency scaling factor: 1.0
           -------------------------------------------------
          |             Thermodynamic Functions             |
           -------------------------------------------------

Molecule has the following symmetry elements: (sigma) 
It seems to be the Cs point group
cs  symmetry found (for desy threshold:  0.10E+00) used in thermo

          ...................................................
          :                      SETUP                      :
          :.................................................:
          :  # frequencies                          42      :
          :  # imaginary freq.                       0      :
          :  linear?                             false      :
          :  only rotor calc.                    false      :
          :  symmetry                               cs      :
          :  rotational number                       1      :
          :  scaling factor                  1.0000000      :
          :  rotor cutoff                   50.0000000 cm⁻¹ :
          :  imag. cutoff                  -20.0000000 cm⁻¹ :
          :.................................................:

    mode    ω/cm⁻¹     T·S(HO)/kcal·mol⁻¹    T·S(FR)/kcal·mol⁻¹   T·S(vib)
   ------------------------------------------------------------------------
       1     93.56    -1.06863 ( 92.46%)    -0.87074 (  7.54%)    -1.05371
       2    198.45    -0.64026 ( 99.60%)    -0.64809 (  0.40%)    -0.64030
       3    244.17    -0.52841 ( 99.82%)    -0.58669 (  0.18%)    -0.52851
       4    254.61    -0.50639 ( 99.85%)    -0.57429 (  0.15%)    -0.50649
   ------------------------------------------------------------------------

   temp. (K)  partition function   enthalpy   heat capacity  entropy
                                   cal/mol     cal/K/mol   cal/K/mol   J/K/mol
 298.15  VIB   19.4                 2706.207     21.418     14.923
         ROT  0.279E+06              888.752      2.981     27.897
         INT  0.541E+07             3594.959     24.398     42.820
         TR   0.109E+28             1481.254      4.968     39.933
         TOT                        5076.2133    29.3666    82.7532   346.2395

       T/K    H(0)-H(T)+PV         H(T)/Eh          T*S/Eh         G(T)/Eh
   ------------------------------------------------------------------------
    298.15    0.808946E-02    0.136761E+00    0.393187E-01    0.974420E-01
   ------------------------------------------------------------------------

         :::::::::::::::::::::::::::::::::::::::::::::::::::::
         ::                  THERMODYNAMIC                  ::
         :::::::::::::::::::::::::::::::::::::::::::::::::::::
         :: total free energy         -23.018244917396 Eh   ::
         ::.................................................::
         :: total energy              -23.115686961931 Eh   ::
         :: zero point energy           0.128671315722 Eh   ::
         :: G(RRHO) w/o ZPVE           -0.031229271187 Eh   ::
         :: G(RRHO) contrib.            0.097442044535 Eh   ::
         :::::::::::::::::::::::::::::::::::::::::::::::::::::

optimized geometry written to: xtbopt.xyz


           -------------------------------------------------
          | TOTAL ENERGY              -23.115686961931 Eh   |
          | TOTAL ENTHALPY            -22.978926185450 Eh   |
          | TOTAL FREE ENERGY         -23.018244917396 Eh   |
          | GRADIENT NORM               0.000443427135 Eh/α |
          | HOMO-LUMO GAP               4.270201451745 eV   |
           -------------------------------------------------

------------------------------------------------------------------------
 * finished run on 2021/11/15 at 09:36:23.902     
------------------------------------------------------------------------
 total:
 * wall-time:     0 d,  0 h,  0 min,  0.727 sec
 *  cpu-time:     0 d,  0 h,  0 min,  0.656 sec
 * ratio c/w:     0.903 speedup
 SCF:
 * wall-time:     0 d,  0 h,  0 min,  0.009 sec
 *  cpu-time:     0 d,  0 h,  0 min,  0.016 sec
 * ratio c/w:     1.823 speedup
 ANC optimizer:
 * wall-time:     0 d,  0 h,  0 min,  0.057 sec
 *  cpu-time:     0 d,  0 h,  0 min,  0.016 sec
 * ratio c/w:     0.273 speedup
 analytical hessian:
 * wall-time:     0 d,  0 h,  0 min,  0.618 sec
 *  cpu-time:     0 d,  0 h,  0 min,  0.625 sec
 * ratio c/w:     1.011 speedup

