 Entering Gaussian System
 *********************************************
 Gaussian 98:
 frequency output generated by the xtb code
 *********************************************
                         Standard orientation:
 --------------------------------------------------------------------
  Center     Atomic     Atomic              Coordinates (Angstroms)
  Number     Number      Type              X           Y           Z
 --------------------------------------------------------------------
    1          6             0       -0.024375    1.060573    0.000140
    2          6             0       -0.449052   -0.262815    0.000101
    3          6             0        0.498990   -1.286767   -0.000012
    4          6             0        1.845659   -0.988490   -0.000137
    5          6             0        2.269749    0.331738   -0.000136
    6          6             0        1.331495    1.346579    0.000027
    7          1             0        1.650058    2.378033    0.000055
    8          1             0       -0.734233    1.871890    0.000276
    9          8             0       -1.754879   -0.665050    0.000205
   10          6             0       -2.768707    0.321505   -0.000435
   11          1             0       -2.710929    0.946722   -0.895148
   12          1             0       -3.704983   -0.231791   -0.000685
   13          1             0       -2.711690    0.947161    0.894020
   14          1             0        0.149307   -2.307053   -0.000016
   15          1             0        3.323005    0.564483   -0.000271
   16          1             0        2.568373   -1.789896   -0.000275
 --------------------------------------------------------------------
     1 basis functions        1 primitive gaussians
     1 alpha electrons        1 beta electrons
 
 Harmonic frequencies (cm**-1), IR intensities (km*mol⁻¹),
 Raman scattering activities (A**4/amu), Raman depolarization ratios,
 reduced masses (AMU), force constants (mDyne/A) and normal coordinates:
                      1                      2                      3
                        a                      a                      a 
 Frequencies --    93.5604               198.4455               244.1674
 Red. masses --     9.8913                 6.8175                 9.2133
 Frc consts  --     0.0000                 0.0000                 0.0000
 IR Inten    --     5.7525                 1.7637                 2.7897
 Raman Activ --     0.0000                 0.0000                 0.0000
 Depolar     --     0.0000                 0.0000                 0.0000
 Atom AN      X      Y      Z        X      Y      Z        X      Y      Z
   1   6     0.00   0.00   0.31     0.00   0.00  -0.24    -0.19  -0.25  -0.00
   2   6    -0.00   0.00   0.25     0.00   0.00  -0.14    -0.01  -0.31  -0.00
   3   6    -0.00   0.00   0.03    -0.00   0.00  -0.33     0.12  -0.18  -0.00
   4   6    -0.00   0.00  -0.23    -0.00  -0.00  -0.08     0.07   0.09  -0.00
   5   6    -0.00  -0.00  -0.23     0.00  -0.00   0.32    -0.12   0.16   0.00
   6   6     0.00   0.00   0.08     0.00  -0.00   0.09    -0.27   0.01   0.00
   7   1     0.00  -0.00   0.04     0.00  -0.00   0.06    -0.13   0.02   0.00
   8   1     0.00  -0.00   0.15     0.00   0.00  -0.13    -0.08  -0.10  -0.00
   9   8    -0.00   0.00   0.44     0.00   0.00   0.41    -0.10  -0.10   0.00
  10   6     0.00  -0.00  -0.51    -0.00  -0.00  -0.04     0.41   0.44  -0.00
  11   1     0.15  -0.09  -0.20    -0.17  -0.29  -0.23     0.21   0.11  -0.00
  12   1     0.00  -0.00  -0.25    -0.00  -0.00   0.35     0.03   0.28   0.00
  13   1    -0.15   0.09  -0.20     0.17   0.29  -0.23     0.22   0.12   0.00
  14   1    -0.00   0.00   0.00    -0.00   0.00  -0.14     0.09  -0.07  -0.00
  15   1    -0.00  -0.00  -0.13     0.00  -0.00   0.20    -0.04   0.09   0.00
  16   1    -0.00   0.00  -0.13    -0.00  -0.00  -0.04     0.06   0.06  -0.00
                      4                      5                      6
                        a                      a                      a 
 Frequencies --   254.6089               381.0440               422.0634
 Red. masses --     6.1700                 8.9578                11.1416
 Frc consts  --     0.0000                 0.0000                 0.0000
 IR Inten    --     2.2136                 0.0024                 0.1368
 Raman Activ --     0.0000                 0.0000                 0.0000
 Depolar     --     0.0000                 0.0000                 0.0000
 Atom AN      X      Y      Z        X      Y      Z        X      Y      Z
   1   6    -0.00  -0.00  -0.27     0.00  -0.00   0.44     0.14  -0.31   0.00
   2   6    -0.00  -0.00  -0.10     0.00   0.00   0.01    -0.06  -0.25  -0.00
   3   6    -0.00  -0.00  -0.28    -0.00   0.00  -0.43     0.21  -0.07   0.00
   4   6    -0.00  -0.00   0.02     0.00  -0.00   0.42     0.24   0.15   0.00
   5   6     0.00  -0.00   0.27     0.00  -0.00  -0.01     0.30   0.13  -0.00
   6   6    -0.00   0.00  -0.11    -0.00   0.00  -0.41     0.10  -0.07   0.00
   7   1    -0.00   0.00  -0.04    -0.00   0.00  -0.26    -0.05   0.00   0.00
   8   1    -0.00  -0.00  -0.08     0.00  -0.00   0.26     0.03  -0.10   0.00
   9   8    -0.00   0.00   0.40    -0.00   0.00  -0.00    -0.34   0.23   0.00
  10   6     0.00  -0.00   0.04    -0.00  -0.00  -0.01    -0.48   0.15  -0.00
  11   1     0.29   0.23   0.19    -0.03  -0.04  -0.03    -0.18   0.04  -0.00
  12   1     0.00  -0.00  -0.44    -0.00  -0.00   0.05    -0.10  -0.02  -0.00
  13   1    -0.29  -0.23   0.19     0.03   0.04  -0.03    -0.18   0.04   0.00
  14   1    -0.00  -0.00  -0.11    -0.00   0.00  -0.26     0.17  -0.06   0.00
  15   1     0.00  -0.00   0.19     0.00  -0.00  -0.01     0.08   0.06  -0.00
  16   1     0.00  -0.00   0.03     0.00  -0.00   0.26     0.07   0.04   0.00
                      7                      8                      9
                        a                      a                      a 
 Frequencies --   482.8987               529.0230               587.6053
 Red. masses --     9.4857                11.8181                11.2318
 Frc consts  --     0.0000                 0.0000                 0.0000
 IR Inten    --     0.0024                13.2724                 0.3824
 Raman Activ --     0.0000                 0.0000                 0.0000
 Depolar     --     0.0000                 0.0000                 0.0000
 Atom AN      X      Y      Z        X      Y      Z        X      Y      Z
   1   6     0.00  -0.00   0.03     0.03   0.02  -0.00    -0.39   0.19   0.00
   2   6    -0.00  -0.00   0.62    -0.34   0.09  -0.00     0.02   0.13   0.00
   3   6     0.00   0.00   0.04    -0.06   0.41  -0.00     0.29   0.28  -0.00
   4   6     0.00   0.00  -0.28     0.01   0.15   0.00     0.44  -0.28  -0.00
   5   6     0.00   0.00   0.39     0.36   0.01  -0.00    -0.01  -0.17  -0.00
   6   6     0.00  -0.00  -0.29     0.15  -0.19   0.00    -0.30  -0.38   0.00
   7   1    -0.00  -0.00  -0.29     0.01  -0.04   0.00    -0.03  -0.13  -0.00
   8   1     0.00   0.00  -0.18     0.11   0.10   0.00    -0.07   0.08   0.00
   9   8    -0.00  -0.00  -0.22    -0.33  -0.48   0.00     0.04   0.12   0.00
  10   6    -0.00   0.00  -0.02     0.12  -0.03   0.00    -0.07   0.07  -0.00
  11   1    -0.03   0.01   0.00     0.16  -0.01   0.00    -0.04   0.02  -0.00
  12   1    -0.00   0.00   0.02    -0.07   0.17  -0.00     0.00  -0.01   0.00
  13   1     0.03  -0.01   0.00     0.16  -0.01  -0.00    -0.04   0.02   0.00
  14   1     0.00   0.00  -0.18     0.01   0.10   0.00     0.02   0.10   0.00
  15   1     0.00   0.00   0.13     0.10  -0.00  -0.00    -0.04   0.12   0.00
  16   1    -0.00   0.00  -0.29    -0.08  -0.04   0.00     0.09  -0.10  -0.00
                     10                     11                     12
                        a                      a                      a 
 Frequencies --   657.0824               755.1535               786.4896
 Red. masses --     9.9716                 4.3270                11.5003
 Frc consts  --     0.0000                 0.0000                 0.0000
 IR Inten    --     0.0139                56.1064                63.5586
 Raman Activ --     0.0000                 0.0000                 0.0000
 Depolar     --     0.0000                 0.0000                 0.0000
 Atom AN      X      Y      Z        X      Y      Z        X      Y      Z
   1   6    -0.00   0.00  -0.32    -0.00   0.00  -0.22    -0.12  -0.27  -0.00
   2   6     0.00  -0.00   0.48     0.00   0.00   0.39    -0.10  -0.03   0.00
   3   6    -0.00  -0.00  -0.31     0.00  -0.00  -0.18    -0.18   0.12   0.00
   4   6     0.00  -0.00   0.37     0.00  -0.00  -0.12    -0.27   0.30   0.00
   5   6    -0.00   0.00  -0.33    -0.00  -0.00  -0.16     0.30   0.07  -0.00
   6   6     0.00   0.00   0.37     0.00   0.00  -0.13    -0.16  -0.42  -0.00
   7   1     0.00   0.00   0.01     0.00  -0.00   0.37    -0.17  -0.08   0.00
   8   1    -0.00   0.00  -0.26     0.00  -0.00   0.37    -0.01  -0.06   0.00
   9   8     0.00   0.00  -0.05    -0.00  -0.00  -0.09     0.34   0.33  -0.00
  10   6    -0.00   0.00  -0.00    -0.00   0.00  -0.01     0.20  -0.08   0.00
  11   1    -0.00   0.01   0.01    -0.01  -0.00  -0.01    -0.05  -0.01  -0.00
  12   1     0.00  -0.00  -0.01    -0.00  -0.00   0.02     0.14  -0.18   0.00
  13   1     0.00  -0.01   0.01     0.01   0.00  -0.01    -0.05  -0.01   0.00
  14   1    -0.00  -0.00  -0.25     0.00  -0.00   0.29     0.01   0.02   0.00
  15   1    -0.00   0.00  -0.23     0.00  -0.00   0.47     0.08   0.03   0.00
  16   1     0.00   0.00   0.01     0.00  -0.00   0.35    -0.16   0.01   0.00
                     13                     14                     15
                        a                      a                      a 
 Frequencies --   860.6701               880.1486               919.1978
 Red. masses --     3.3441                 3.6270                 3.9034
 Frc consts  --     0.0000                 0.0000                 0.0000
 IR Inten    --     0.0055                 1.6958                 0.0476
 Raman Activ --     0.0000                 0.0000                 0.0000
 Depolar     --     0.0000                 0.0000                 0.0000
 Atom AN      X      Y      Z        X      Y      Z        X      Y      Z
   1   6    -0.00   0.00  -0.35     0.00  -0.00   0.14     0.00  -0.00   0.17
   2   6     0.00  -0.00  -0.00    -0.00  -0.00  -0.08    -0.00  -0.00   0.04
   3   6     0.00   0.00   0.18     0.00  -0.00   0.31    -0.00  -0.00  -0.21
   4   6     0.00  -0.00   0.18     0.00  -0.00   0.07     0.00  -0.00   0.22
   5   6     0.00  -0.00   0.13    -0.00   0.00  -0.31     0.00  -0.00   0.12
   6   6    -0.00   0.00  -0.11    -0.00   0.00  -0.14    -0.00   0.00  -0.36
   7   1     0.00  -0.00   0.19     0.00  -0.00   0.33     0.00  -0.00   0.63
   8   1     0.00  -0.00   0.66     0.00   0.00  -0.25    -0.00   0.00  -0.30
   9   8    -0.00  -0.00  -0.01    -0.00  -0.00   0.02     0.00  -0.00  -0.00
  10   6    -0.00  -0.00   0.00     0.00   0.00   0.00     0.00   0.00  -0.00
  11   1     0.00  -0.01  -0.01     0.00   0.00   0.00    -0.01   0.01   0.00
  12   1    -0.00   0.00   0.02    -0.00   0.00  -0.01     0.00  -0.00  -0.01
  13   1    -0.00   0.01  -0.01    -0.00  -0.00   0.00     0.01  -0.01   0.00
  14   1    -0.00   0.00  -0.33    -0.00   0.00  -0.59     0.00  -0.00   0.29
  15   1    -0.00  -0.00  -0.22     0.00  -0.00   0.49    -0.00   0.00  -0.23
  16   1    -0.00   0.00  -0.39     0.00   0.00  -0.05    -0.00   0.00  -0.33
                     16                     17                     18
                        a                      a                      a 
 Frequencies --   923.8424               975.1656              1044.3706
 Red. masses --     2.9655                10.8803                12.6156
 Frc consts  --     0.0000                 0.0000                 0.0000
 IR Inten    --     0.0149                 5.9922                77.6692
 Raman Activ --     0.0000                 0.0000                 0.0000
 Depolar     --     0.0000                 0.0000                 0.0000
 Atom AN      X      Y      Z        X      Y      Z        X      Y      Z
   1   6    -0.00   0.00  -0.03    -0.28   0.46   0.00     0.09  -0.15  -0.00
   2   6     0.00  -0.00   0.07     0.20   0.04  -0.00     0.20   0.02  -0.00
   3   6     0.00  -0.00   0.12    -0.06  -0.53  -0.00     0.03   0.20   0.00
   4   6    -0.00   0.00  -0.30    -0.12   0.18   0.00    -0.14   0.09   0.00
   5   6     0.00  -0.00   0.23     0.36   0.08  -0.00    -0.11  -0.03   0.00
   6   6    -0.00   0.00  -0.11    -0.02  -0.20  -0.00    -0.05  -0.10   0.00
   7   1     0.00  -0.00   0.30     0.07  -0.07  -0.00    -0.06  -0.02   0.00
   8   1    -0.00   0.00  -0.08    -0.02   0.18   0.00    -0.02  -0.09  -0.00
   9   8    -0.00  -0.00   0.00     0.02  -0.14   0.00     0.49  -0.39   0.00
  10   6    -0.00   0.00   0.00    -0.16   0.07  -0.00    -0.47   0.36  -0.00
  11   1     0.00   0.00   0.00     0.03   0.01   0.00     0.00   0.05  -0.01
  12   1     0.00  -0.00  -0.00    -0.09   0.10  -0.00    -0.15   0.16  -0.00
  13   1    -0.00  -0.00   0.00     0.03   0.01  -0.00     0.00   0.05   0.01
  14   1    -0.00   0.00  -0.33     0.03  -0.16   0.00    -0.07   0.09   0.00
  15   1    -0.00   0.00  -0.48     0.10   0.01   0.00    -0.02  -0.05   0.00
  16   1     0.00  -0.00   0.62     0.03   0.10  -0.00    -0.09  -0.02   0.00
                     19                     20                     21
                        a                      a                      a 
 Frequencies --  1080.0002              1111.4472              1115.3653
 Red. masses --     6.1596                 4.4111                 3.7052
 Frc consts  --     0.0000                 0.0000                 0.0000
 IR Inten    --     0.9117                 2.7677                 2.8828
 Raman Activ --     0.0000                 0.0000                 0.0000
 Depolar     --     0.0000                 0.0000                 0.0000
 Atom AN      X      Y      Z        X      Y      Z        X      Y      Z
   1   6     0.13   0.06  -0.00    -0.26   0.13   0.00    -0.00   0.00   0.00
   2   6    -0.05  -0.03   0.00    -0.01  -0.15  -0.00     0.00  -0.00  -0.00
   3   6     0.16   0.07  -0.00     0.11   0.14  -0.00     0.00   0.00  -0.00
   4   6    -0.13   0.32   0.00    -0.09   0.04   0.00    -0.00   0.00   0.00
   5   6    -0.42  -0.14   0.00     0.12  -0.17  -0.00     0.00  -0.00   0.00
   6   6     0.03  -0.30  -0.00     0.06   0.24   0.00     0.00   0.00  -0.00
   7   1     0.31  -0.18  -0.00     0.17   0.02  -0.00     0.00  -0.00   0.00
   8   1     0.21   0.17   0.00    -0.32  -0.18  -0.00    -0.00  -0.00  -0.02
   9   8    -0.03   0.04  -0.00    -0.00  -0.12   0.00     0.00  -0.00  -0.22
  10   6     0.01  -0.04  -0.00     0.09   0.18  -0.00    -0.00   0.00   0.42
  11   1     0.01  -0.00   0.01    -0.16   0.02  -0.03     0.40  -0.42  -0.17
  12   1     0.00  -0.01   0.00     0.16  -0.19   0.00     0.00  -0.00  -0.23
  13   1     0.01  -0.00  -0.01    -0.16   0.02   0.03    -0.40   0.42  -0.17
  14   1     0.46  -0.12  -0.00     0.39  -0.08  -0.00     0.00  -0.00   0.01
  15   1    -0.12  -0.09   0.00     0.11  -0.39  -0.00     0.00  -0.00  -0.00
  16   1     0.14   0.26  -0.00    -0.25  -0.19   0.00    -0.00  -0.00  -0.00
                     22                     23                     24
                        a                      a                      a 
 Frequencies --  1150.9073              1175.4086              1186.3688
 Red. masses --     4.6150                 1.7979                 3.6008
 Frc consts  --     0.0000                 0.0000                 0.0000
 IR Inten    --     6.3357                14.4340               113.6643
 Raman Activ --     0.0000                 0.0000                 0.0000
 Depolar     --     0.0000                 0.0000                 0.0000
 Atom AN      X      Y      Z        X      Y      Z        X      Y      Z
   1   6    -0.07  -0.04   0.00    -0.11  -0.05   0.00     0.00  -0.04   0.00
   2   6     0.06   0.03   0.00     0.08   0.04   0.00     0.31  -0.02  -0.00
   3   6     0.09   0.05  -0.00     0.08   0.06  -0.00    -0.04   0.10  -0.00
   4   6    -0.06  -0.02  -0.00     0.03   0.12   0.00    -0.04   0.19   0.00
   5   6     0.03  -0.05  -0.00     0.01  -0.09  -0.00    -0.01  -0.01   0.00
   6   6    -0.02   0.07   0.00    -0.00  -0.03   0.00     0.04  -0.13  -0.00
   7   1    -0.07   0.04   0.00    -0.19   0.05   0.00     0.51  -0.19  -0.00
   8   1    -0.14  -0.12  -0.00    -0.07  -0.06  -0.00    -0.41  -0.37  -0.00
   9   8     0.05   0.31  -0.00    -0.08   0.05  -0.00    -0.21   0.03  -0.00
  10   6    -0.15  -0.37  -0.00     0.02  -0.05   0.00     0.07  -0.08   0.00
  11   1     0.31  -0.05   0.04     0.01  -0.01   0.00    -0.00  -0.02  -0.00
  12   1    -0.34   0.43  -0.00    -0.02   0.04  -0.00    -0.05   0.08  -0.00
  13   1     0.31  -0.05  -0.04     0.01  -0.01  -0.00    -0.00  -0.02   0.00
  14   1     0.27  -0.07  -0.00    -0.30   0.13   0.00    -0.31   0.13   0.00
  15   1     0.04  -0.15   0.00     0.15  -0.68  -0.00    -0.06   0.22   0.00
  16   1    -0.19  -0.16   0.00     0.39   0.38  -0.00    -0.00   0.06   0.00
                     25                     26                     27
                        a                      a                      a 
 Frequencies --  1230.6437              1279.0842              1329.3320
 Red. masses --     9.0252                 3.6539                11.9090
 Frc consts  --     0.0000                 0.0000                 0.0000
 IR Inten    --   329.7879                 5.4853                29.3312
 Raman Activ --     0.0000                 0.0000                 0.0000
 Depolar     --     0.0000                 0.0000                 0.0000
 Atom AN      X      Y      Z        X      Y      Z        X      Y      Z
   1   6    -0.22  -0.10   0.00    -0.16  -0.09   0.00    -0.26  -0.27   0.00
   2   6    -0.57  -0.04   0.00     0.01  -0.30  -0.00     0.00   0.43  -0.00
   3   6    -0.12  -0.06   0.00     0.19  -0.02  -0.00     0.41  -0.12  -0.00
   4   6     0.11  -0.14  -0.00     0.07   0.12  -0.00    -0.29  -0.22   0.00
   5   6     0.09   0.07  -0.00    -0.05   0.16   0.00    -0.13   0.40   0.00
   6   6     0.16   0.15  -0.00    -0.10   0.09   0.00     0.36  -0.16  -0.00
   7   1     0.41  -0.07  -0.00     0.36  -0.09  -0.00     0.00  -0.02   0.00
   8   1    -0.11  -0.06   0.00     0.36   0.33   0.00    -0.01  -0.02   0.00
   9   8     0.39   0.06  -0.00     0.02   0.10  -0.00    -0.09  -0.05   0.00
  10   6    -0.12   0.04  -0.00    -0.05  -0.04   0.00     0.05   0.02  -0.00
  11   1     0.09  -0.01   0.00     0.05   0.01   0.02    -0.04   0.01  -0.00
  12   1    -0.04   0.03  -0.00    -0.00  -0.02  -0.00     0.03  -0.02   0.00
  13   1     0.09  -0.01  -0.00     0.05   0.01  -0.02    -0.04   0.01   0.00
  14   1    -0.01  -0.04  -0.00    -0.37   0.14   0.00     0.01   0.01  -0.00
  15   1     0.03   0.04   0.00     0.05  -0.25  -0.00    -0.00  -0.04  -0.00
  16   1     0.29   0.18  -0.00    -0.30  -0.26   0.00    -0.06  -0.04  -0.00
                     28                     29                     30
                        a                      a                      a 
 Frequencies --  1388.8832              1437.6187              1460.2313
 Red. masses --     2.4898                 8.8448                 1.5431
 Frc consts  --     0.0000                 0.0000                 0.0000
 IR Inten    --     0.7293                11.3269                 6.9676
 Raman Activ --     0.0000                 0.0000                 0.0000
 Depolar     --     0.0000                 0.0000                 0.0000
 Atom AN      X      Y      Z        X      Y      Z        X      Y      Z
   1   6    -0.02  -0.03  -0.00    -0.34   0.01   0.00    -0.00  -0.00  -0.00
   2   6    -0.04  -0.01   0.00     0.14  -0.35  -0.00     0.00  -0.00   0.00
   3   6    -0.05   0.00   0.00     0.19   0.21  -0.00     0.00   0.00   0.00
   4   6     0.03  -0.02  -0.00    -0.36  -0.04   0.00    -0.00  -0.00  -0.00
   5   6     0.02   0.02  -0.00     0.09  -0.32  -0.00     0.00  -0.00   0.00
   6   6    -0.03   0.03   0.00     0.31   0.17  -0.00     0.00   0.00  -0.00
   7   1     0.05  -0.01  -0.00    -0.13   0.12   0.00    -0.00   0.00  -0.00
   8   1     0.06   0.05   0.00     0.09   0.17   0.00     0.00   0.00   0.02
   9   8     0.12  -0.06   0.00    -0.01   0.06  -0.00    -0.00   0.00   0.03
  10   6     0.25  -0.19   0.00    -0.04  -0.06  -0.00     0.00   0.00   0.22
  11   1    -0.46   0.23   0.14     0.03   0.10   0.08    -0.45  -0.10  -0.09
  12   1    -0.27   0.48  -0.00    -0.00  -0.02   0.00     0.00   0.00  -0.72
  13   1    -0.46   0.23  -0.14     0.03   0.10  -0.08     0.45   0.10  -0.09
  14   1     0.02  -0.01   0.00    -0.06   0.10   0.00    -0.00   0.00  -0.00
  15   1     0.01  -0.02  -0.00    -0.07   0.34   0.00    -0.00   0.00   0.00
  16   1     0.02  -0.00   0.00     0.12   0.19  -0.00     0.00   0.00  -0.00
                     31                     32                     33
                        a                      a                      a 
 Frequencies --  1467.3988              1473.8261              1587.4168
 Red. masses --     7.7983                 2.9471                11.5474
 Frc consts  --     0.0000                 0.0000                 0.0000
 IR Inten    --   132.7624                 2.5967                33.3262
 Raman Activ --     0.0000                 0.0000                 0.0000
 Depolar     --     0.0000                 0.0000                 0.0000
 Atom AN      X      Y      Z        X      Y      Z        X      Y      Z
   1   6    -0.05  -0.25  -0.00     0.10   0.13   0.00    -0.17  -0.36  -0.00
   2   6     0.36   0.13  -0.00    -0.17   0.03   0.00    -0.01   0.50   0.00
   3   6    -0.28   0.17   0.00     0.08  -0.12  -0.00     0.08  -0.22  -0.00
   4   6    -0.09  -0.29  -0.00     0.11   0.14  -0.00     0.14   0.34  -0.00
   5   6     0.20   0.16  -0.00    -0.11  -0.02   0.00     0.08  -0.52  -0.00
   6   6    -0.29   0.13   0.00     0.08  -0.10  -0.00    -0.11   0.26   0.00
   7   1     0.25  -0.07  -0.00    -0.10   0.01   0.00     0.06   0.04  -0.00
   8   1     0.17   0.08  -0.00    -0.15  -0.12  -0.00     0.11   0.04   0.00
   9   8    -0.11  -0.05   0.00     0.03  -0.05   0.00    -0.03  -0.05   0.00
  10   6    -0.07  -0.06   0.00    -0.10  -0.15   0.00     0.01   0.02  -0.00
  11   1     0.10   0.20   0.14     0.15   0.46   0.33    -0.00   0.00  -0.00
  12   1     0.08  -0.15  -0.00     0.12  -0.23  -0.00     0.02  -0.02   0.00
  13   1     0.10   0.20  -0.14     0.15   0.46  -0.33    -0.00   0.00   0.00
  14   1     0.25  -0.06  -0.00    -0.09   0.00   0.00    -0.04  -0.04   0.00
  15   1     0.08  -0.06  -0.00    -0.03  -0.03   0.00    -0.03   0.12   0.00
  16   1     0.18   0.10  -0.00    -0.10  -0.08   0.00    -0.08  -0.02   0.00
                     34                     35                     36
                        a                      a                      a 
 Frequencies --  1600.8229              2944.6125              2957.0897
 Red. masses --    11.4942                 1.9568                 1.4401
 Frc consts  --     0.0000                 0.0000                 0.0000
 IR Inten    --    98.0872                47.6728                46.1093
 Raman Activ --     0.0000                 0.0000                 0.0000
 Depolar     --     0.0000                 0.0000                 0.0000
 Atom AN      X      Y      Z        X      Y      Z        X      Y      Z
   1   6    -0.35  -0.13   0.00     0.00  -0.00  -0.00    -0.00   0.00   0.00
   2   6     0.24  -0.04  -0.00     0.00   0.00  -0.00    -0.00  -0.00  -0.00
   3   6    -0.50   0.06   0.00    -0.00  -0.00   0.00     0.00   0.00   0.00
   4   6     0.41   0.16  -0.00     0.00   0.00   0.00    -0.00  -0.00   0.00
   5   6    -0.24   0.08   0.00     0.00  -0.00   0.00     0.00   0.00  -0.00
   6   6     0.48  -0.11  -0.00    -0.00   0.00   0.00    -0.00   0.00   0.00
   7   1    -0.11   0.04   0.00    -0.00  -0.00  -0.00    -0.00  -0.00  -0.00
   8   1     0.03   0.07   0.00    -0.00   0.00  -0.00     0.01  -0.01  -0.00
   9   8    -0.00   0.00  -0.00    -0.00   0.00   0.01     0.01  -0.02   0.00
  10   6    -0.01   0.00  -0.00    -0.00   0.00   0.29    -0.04  -0.19   0.00
  11   1     0.01  -0.00  -0.00     0.05   0.40  -0.54     0.04   0.37  -0.59
  12   1    -0.00  -0.00   0.00    -0.00  -0.00   0.05     0.01  -0.01  -0.00
  13   1     0.01  -0.00   0.00    -0.05  -0.40  -0.54     0.03   0.37   0.59
  14   1     0.09  -0.06  -0.00     0.00   0.00   0.00    -0.00  -0.00   0.00
  15   1    -0.05  -0.05   0.00    -0.00   0.00  -0.00    -0.00  -0.00  -0.00
  16   1    -0.04  -0.09   0.00     0.00  -0.00  -0.00    -0.00   0.00   0.00
                     37                     38                     39
                        a                      a                      a 
 Frequencies --  3035.0762              3079.6622              3083.6936
 Red. masses --     1.7010                 1.7654                 1.7907
 Frc consts  --     0.0000                 0.0000                 0.0000
 IR Inten    --    17.9316                20.1141                40.3100
 Raman Activ --     0.0000                 0.0000                 0.0000
 Depolar     --     0.0000                 0.0000                 0.0000
 Atom AN      X      Y      Z        X      Y      Z        X      Y      Z
   1   6    -0.00   0.00   0.00     0.03  -0.03  -0.00     0.02  -0.02  -0.00
   2   6     0.00  -0.00  -0.00     0.00  -0.00  -0.00    -0.00  -0.00  -0.00
   3   6     0.00   0.00  -0.00     0.00   0.00  -0.00    -0.02  -0.06   0.00
   4   6    -0.00   0.00   0.00     0.02  -0.03  -0.00    -0.15   0.17   0.00
   5   6    -0.00   0.00   0.00    -0.12  -0.02   0.00     0.08   0.02  -0.00
   6   6     0.00  -0.00  -0.00     0.07   0.22   0.00     0.03   0.09   0.00
   7   1     0.00   0.00  -0.00    -0.24  -0.79  -0.00    -0.09  -0.29  -0.00
   8   1     0.00  -0.00  -0.00    -0.11   0.12   0.00    -0.07   0.07   0.00
   9   8    -0.01   0.00  -0.00     0.00   0.00   0.00     0.00   0.00  -0.00
  10   6    -0.21  -0.13  -0.00    -0.00  -0.00  -0.00    -0.00  -0.00  -0.00
  11   1    -0.03  -0.03   0.01     0.00   0.00  -0.00     0.00   0.00  -0.00
  12   1     0.83   0.50   0.00     0.00   0.00   0.00     0.00   0.00  -0.00
  13   1    -0.03  -0.03  -0.01     0.00   0.00   0.00     0.00   0.00   0.00
  14   1    -0.00  -0.00   0.00    -0.01  -0.02  -0.00     0.08   0.23   0.00
  15   1     0.00   0.00  -0.00     0.44   0.10  -0.00    -0.30  -0.07   0.00
  16   1     0.00  -0.00  -0.00    -0.10   0.12   0.00     0.55  -0.61  -0.00
                     40                     41                     42
                        a                      a                      a 
 Frequencies --  3096.1389              3103.9565              3109.6575
 Red. masses --     1.8555                 1.8679                 1.8771
 Frc consts  --     0.0000                 0.0000                 0.0000
 IR Inten    --   150.2009               126.3889                11.1784
 Raman Activ --     0.0000                 0.0000                 0.0000
 Depolar     --     0.0000                 0.0000                 0.0000
 Atom AN      X      Y      Z        X      Y      Z        X      Y      Z
   1   6     0.04  -0.05  -0.00     0.09  -0.10  -0.00    -0.15   0.17   0.00
   2   6     0.01   0.00  -0.00    -0.00  -0.00   0.00    -0.01  -0.00   0.00
   3   6     0.04   0.12   0.00    -0.07  -0.20  -0.00    -0.03  -0.09  -0.00
   4   6     0.05  -0.06  -0.00     0.07  -0.08  -0.00     0.04  -0.05  -0.00
   5   6     0.20   0.04  -0.00     0.06   0.02  -0.00     0.08   0.02  -0.00
   6   6     0.02   0.08   0.00    -0.00  -0.01  -0.00     0.02   0.08   0.00
   7   1    -0.08  -0.27  -0.00     0.01   0.02   0.00    -0.08  -0.26  -0.00
   8   1    -0.15   0.17   0.00    -0.31   0.35   0.00     0.52  -0.59  -0.00
   9   8     0.00   0.00  -0.00     0.00  -0.00   0.00     0.00   0.00  -0.00
  10   6    -0.00  -0.00  -0.00    -0.00  -0.00  -0.00     0.00   0.00   0.00
  11   1     0.00  -0.00   0.00     0.00   0.00  -0.00    -0.00  -0.00   0.01
  12   1     0.00   0.00   0.00     0.00   0.00   0.00    -0.00  -0.00   0.00
  13   1     0.00  -0.00  -0.00     0.00   0.00   0.00    -0.00  -0.00  -0.01
  14   1    -0.15  -0.44  -0.00     0.23   0.69   0.00     0.10   0.31   0.00
  15   1    -0.70  -0.15   0.00    -0.21  -0.05   0.00    -0.27  -0.06   0.00
  16   1    -0.18   0.20   0.00    -0.23   0.26   0.00    -0.14   0.16   0.00
