16
 energy: -23.115686962318 gnorm: 0.000443130859 xtb: 6.4.1 (afa7bdf)
C        -0.02437461156304    1.06057264110891    0.00013990131894
C        -0.44905242130670   -0.26281502933573    0.00010105312003
C         0.49898999204895   -1.28676724966238   -0.00001231280192
C         1.84565905495390   -0.98849026344352   -0.00013731192886
C         2.26974934869107    0.33173759603053   -0.00013569562577
C         1.33149498110545    1.34657860856080    0.00002747496037
H         1.65005753226479    2.37803290140059    0.00005496354608
H        -0.73423263941604    1.87189034368019    0.00027611435603
O        -1.75487937362188   -0.66505022239651    0.00020529745529
C        -2.76870701468069    0.32150548146303   -0.00043529260337
H        -2.71092874467059    0.94672161459391   -0.89514762554786
H        -3.70498273469338   -0.23179091245438   -0.00068508852130
H        -2.71169024859913    0.94716069488787    0.89401957612962
H         0.14930687430884   -2.30705266875663   -0.00001622485868
H         3.32300503686009    0.56448341892766   -0.00027093328424
H         2.56837267226777   -1.78989555908702   -0.00027453332641
