      -----------------------------------------------------------      
     |                   =====================                   |     
     |                           x T B                           |     
     |                   =====================                   |     
     |                         S. Grimme                         |     
     |          Mulliken Center for Theoretical Chemistry        |     
     |                    University of Bonn                     |     
      -----------------------------------------------------------      

   * xtb version 6.4.1 (afa7bdf) compiled by 'ehlert@majestix' on 2021-06-10

   xtb is free software: you can redistribute it and/or modify it under
   the terms of the GNU Lesser General Public License as published by
   the Free Software Foundation, either version 3 of the License, or
   (at your option) any later version.
   
   xtb is distributed in the hope that it will be useful,
   but WITHOUT ANY WARRANTY; without even the implied warranty of
   MERCHANTABILITY or FITNESS FOR A PARTICULAR PURPOSE.  See the
   GNU Lesser General Public License for more details.
   
   Cite this work as:
   * C. Bannwarth, E. Caldeweyher, S. Ehlert, A. Hansen, P. Pracht,
     J. Seibert, S. Spicher, S. Grimme, WIREs Comput. Mol. Sci., 2020, 11,
     e01493. DOI: 10.1002/wcms.1493
   
   for GFN2-xTB:
   * C. Bannwarth, S. Ehlert and S. Grimme., J. Chem. Theory Comput., 2019,
     15, 1652-1671. DOI: 10.1021/acs.jctc.8b01176
   for GFN1-xTB:
   * S. Grimme, C. Bannwarth, P. Shushkov, J. Chem. Theory Comput., 2017,
     13, 1989-2009. DOI: 10.1021/acs.jctc.7b00118
   for GFN0-xTB:
   * P. Pracht, E. Caldeweyher, S. Ehlert, S. Grimme, ChemRxiv, 2019, preprint.
     DOI: 10.26434/chemrxiv.8326202.v1
   for GFN-FF:
   * S. Spicher and S. Grimme, Angew. Chem. Int. Ed., 2020, 59, 15665-15673.
     DOI: 10.1002/anie.202004239
   
   for DFT-D4:
   * E. Caldeweyher, C. Bannwarth and S. Grimme, J. Chem. Phys., 2017,
     147, 034112. DOI: 10.1063/1.4993215
   * E. Caldeweyher, S. Ehlert, A. Hansen, H. Neugebauer, S. Spicher,
     C. Bannwarth and S. Grimme, J. Chem. Phys., 2019, 150, 154122.
     DOI: 10.1063/1.5090222
   * E. Caldeweyher, J.-M. Mewes, S. Ehlert and S. Grimme, Phys. Chem. Chem. Phys.
     2020, 22, 8499-8512. DOI: 10.1039/D0CP00502A
   
   for sTDA-xTB:
   * S. Grimme and C. Bannwarth, J. Chem. Phys., 2016, 145, 054103.
     DOI: 10.1063/1.4959605
   
   in the mass-spec context:
   * V. Asgeirsson, C. Bauer and S. Grimme, Chem. Sci., 2017, 8, 4879.
     DOI: 10.1039/c7sc00601b
   * J. Koopman and S. Grimme, ACS Omega 2019, 4, 12, 15120-15133.
     DOI: 10.1021/acsomega.9b02011
   
   for metadynamics refer to:
   * S. Grimme, J. Chem. Theory Comput., 2019, 155, 2847-2862
     DOI: 10.1021/acs.jctc.9b00143
   
   for SPH calculations refer to:
   * S. Spicher and S. Grimme, J. Chem. Theory Comput., 2021, 17, 1701-1714
     DOI: 10.1021/acs.jctc.0c01306
   
   with help from (in alphabetical order)
   P. Atkinson, C. Bannwarth, F. Bohle, G. Brandenburg, E. Caldeweyher
   M. Checinski, S. Dohm, S. Ehlert, S. Ehrlich, I. Gerasimov, J. Koopman
   C. Lavigne, S. Lehtola, F. März, M. Müller, F. Musil, H. Neugebauer
   J. Pisarek, C. Plett, P. Pracht, J. Seibert, P. Shushkov, S. Spicher
   M. Stahn, M. Steiner, T. Strunk, J. Stückrath, T. Rose, and J. Unsleber
   
 * started run on 2021/11/15 at 09:36:10.448     

           -------------------------------------------------
          |                Calculation Setup                |
           -------------------------------------------------

          program call               : xtb 05_3-methoxyphenol.xyz --gfn2 --chrg 0 --uhf 0 --alpb water --ohess -P 1
          coordinate file            : 05_3-methoxyphenol.xyz
          omp threads                :                     1
          number of atoms            :                    17
          number of electrons        :                    48
          charge                     :                     0
          spin                       :                   0.0
          first test random number   :      0.83641408807374

   ID    Z sym.   atoms
    1    6 C      1-6, 14
    2    1 H      7, 8, 10-12, 15-17
    3    8 O      9, 13

           -------------------------------------------------
          |                 G F N 2 - x T B                 |
           -------------------------------------------------

        Reference                      10.1021/acs.jctc.8b01176
      * Hamiltonian:
        H0-scaling (s, p, d)           1.850000    2.230000    2.230000
        zeta-weighting                 0.500000
      * Dispersion:
        s8                             2.700000
        a1                             0.520000
        a2                             5.000000
        s9                             5.000000
      * Repulsion:
        kExp                           1.500000    1.000000
        rExp                           1.000000
      * Coulomb:
        alpha                          2.000000
        third order                    shell-resolved
        anisotropic                    true
        a3                             3.000000
        a5                             4.000000
        cn-shift                       1.200000
        cn-exp                         4.000000
        max-rad                        5.000000

      * Solvation model:               ALPB
        Solvent                        water
        Parameter file                 internal GFN2-xTB/ALPB
        Dielectric constant                8.0200E+01
        Reference state                gsolv [1 M gas/solution]
        Free energy shift                  1.0808E-03 Eh       6.7819E-01 kcal/mol
        Temperature                        2.9815E+02 K
        Density                            1.0000E+00 kg/L
        Solvent mass                       1.8000E+01 g/mol
        Interaction kernel             P16
        Born radius scaling (c1)           1.4744E+00
        Born radii integrator          GBOBC
        Born offset                        0.0000E+00 a0       0.0000E+00 AA
        H-bond correction              true
        Ion screening                  false
        Surface tension                    1.0000E-05 Eh       1.5569E+01 dyn/cm
        Grid points                               230 per atom

          ...................................................
          :                      SETUP                      :
          :.................................................:
          :  # basis functions                  44          :
          :  # atomic orbitals                  44          :
          :  # shells                           26          :
          :  # electrons                        48          :
          :  max. iterations                   250          :
          :  Hamiltonian                  GFN2-xTB          :
          :  restarted?                      false          :
          :  GBSA solvation                   true          :
          :  PC potential                    false          :
          :  electronic temp.          300.0000000     K    :
          :  accuracy                    1.0000000          :
          :  -> integral cutoff          0.2500000E+02      :
          :  -> integral neglect         0.1000000E-07      :
          :  -> SCF convergence          0.1000000E-05 Eh   :
          :  -> wf. convergence          0.1000000E-03 e    :
          :  Broyden damping             0.4000000          :
          ...................................................

 iter      E             dE          RMSdq      gap      omega  full diag
   1    -27.5220964 -0.275221E+02  0.487E+00    4.29       0.0  T
   2    -27.5467545 -0.246581E-01  0.282E+00    4.21       1.0  T
   3    -27.5420335  0.472103E-02  0.132E+00    4.20       1.0  T
   4    -27.5522360 -0.102025E-01  0.256E-01    4.17       1.0  T
   5    -27.5524437 -0.207614E-03  0.885E-02    4.21       1.0  T
   6    -27.5524477 -0.399827E-05  0.468E-02    4.19       1.0  T
   7    -27.5524553 -0.760274E-05  0.116E-02    4.20       2.1  T
   8    -27.5524556 -0.350812E-06  0.516E-03    4.20       4.7  T
   9    -27.5524557 -0.712017E-07  0.153E-03    4.20      15.9  T
  10    -27.5524557 -0.793871E-08  0.769E-04    4.20      31.6  T
  11    -27.5524557 -0.358438E-08  0.267E-04    4.20      91.0  T

   *** convergence criteria satisfied after 11 iterations ***

         #    Occupation            Energy/Eh            Energy/eV
      -------------------------------------------------------------
         1        2.0000           -0.7158231             -19.4785
       ...           ...                  ...                  ...
        18        2.0000           -0.4705869             -12.8053
        19        2.0000           -0.4645168             -12.6401
        20        2.0000           -0.4398775             -11.9697
        21        2.0000           -0.4374683             -11.9041
        22        2.0000           -0.4271304             -11.6228
        23        2.0000           -0.3895224             -10.5994
        24        2.0000           -0.3761470             -10.2355 (HOMO)
        25                         -0.2217161              -6.0332 (LUMO)
        26                         -0.2106533              -5.7322
        27                         -0.0903954              -2.4598
        28                          0.0145324               0.3954
        29                          0.0774062               2.1063
       ...                                ...                  ...
        44                          0.6501375              17.6911
      -------------------------------------------------------------
                  HL-Gap            0.1544309 Eh            4.2023 eV
             Fermi-level           -0.2989315 Eh           -8.1343 eV

 SCC (total)                   0 d,  0 h,  0 min,  0.009 sec
 SCC setup                      ...        0 min,  0.000 sec (  4.401%)
 Dispersion                     ...        0 min,  0.000 sec (  1.221%)
 classical contributions        ...        0 min,  0.000 sec (  0.229%)
 integral evaluation            ...        0 min,  0.001 sec ( 16.011%)
 iterations                     ...        0 min,  0.004 sec ( 44.420%)
 molecular gradient             ...        0 min,  0.003 sec ( 31.909%)
 printout                       ...        0 min,  0.000 sec (  1.582%)

         :::::::::::::::::::::::::::::::::::::::::::::::::::::
         ::                     SUMMARY                     ::
         :::::::::::::::::::::::::::::::::::::::::::::::::::::
         :: total energy             -27.195308296620 Eh    ::
         :: total w/o Gsasa/hb       -27.190684210626 Eh    ::
         :: gradient norm              0.021910991555 Eh/a0 ::
         :: HOMO-LUMO gap              4.202279913023 eV    ::
         ::.................................................::
         :: SCC energy               -27.552455686981 Eh    ::
         :: -> isotropic ES            0.046335657884 Eh    ::
         :: -> anisotropic ES          0.003411372596 Eh    ::
         :: -> anisotropic XC          0.007683824234 Eh    ::
         :: -> dispersion             -0.012560149798 Eh    ::
         :: -> Gsolv                  -0.010872159997 Eh    ::
         ::    -> Gelec               -0.006248074003 Eh    ::
         ::    -> Gsasa                0.000820502617 Eh    ::
         ::    -> Ghb                 -0.006525348310 Eh    ::
         ::    -> Gshift               0.001080759698 Eh    ::
         :: repulsion energy           0.357135717974 Eh    ::
         :: add. restraining           0.000000000000 Eh    ::
         :: total charge              -0.000000000000 e     ::
         :::::::::::::::::::::::::::::::::::::::::::::::::::::

      ----------------------------------------------------------- 
     |                   =====================                   |
     |                        A N C O P T                        |
     |                   =====================                   |
     |               Approximate Normal Coordinate               |
     |                Rational Function Optimizer                |
      ----------------------------------------------------------- 

          ...................................................
          :                      SETUP                      :
          :.................................................:
          :   optimization level            normal          :
          :   max. optcycles                   200          :
          :   ANC micro-cycles                  20          :
          :   degrees of freedom                45          :
          :.................................................:
          :   RF solver                   davidson          :
          :   write xtbopt.log                true          :
          :   linear?                        false          :
          :   energy convergence         0.5000000E-05 Eh   :
          :   grad. convergence          0.1000000E-02 Eh/α :
          :   maximium RF displ.         1.0000000          :
          :   Hlow (freq-cutoff)         0.1000000E-01      :
          :   Hmax (freq-cutoff)         5.0000000          :
          :   S6 in model hess.         20.0000000          :
          ...................................................

generating ANC from model Hessian ...
Using Lindh-Hessian (1995)
 Shifting diagonal of input Hessian by   7.315602955250496E-003
 Lowest  eigenvalues of input Hessian
    0.000000    0.000000    0.000000    0.000000    0.000000    0.000000
    0.010000    0.012492    0.015502    0.015826    0.023155    0.030600
    0.034691    0.034958    0.051967    0.056913    0.071380    0.079834
 Highest eigenvalues
    1.527332    1.724665    1.758269    1.882557    2.030519    2.088954
 

........................................................................
.............................. CYCLE    1 ..............................
........................................................................
   1    -27.5524557 -0.275525E+02  0.977E-05    4.20       0.0  T
   2    -27.5524557 -0.393179E-10  0.580E-05    4.20     418.1  T
   3    -27.5524557 -0.157527E-10  0.355E-05    4.20     683.4  T
     SCC iter.                  ...        0 min,  0.002 sec
     gradient                   ...        0 min,  0.004 sec
 * total energy  :   -27.1953083 Eh     change       -0.1672014E-09 Eh
   gradient norm :     0.0219122 Eh/α   predicted     0.0000000E+00 (-100.00%)
   displ. norm   :     0.0880202 α      lambda       -0.1245746E-02
   maximum displ.:     0.0544813 α      in ANC's #25, #3, #10, ...

........................................................................
.............................. CYCLE    2 ..............................
........................................................................
   1    -27.5654412 -0.275654E+02  0.108E-01    4.26       0.0  T
   2    -27.5654462 -0.504831E-05  0.637E-02    4.26       1.0  T
   3    -27.5654423  0.388147E-05  0.302E-02    4.26       1.0  T
   4    -27.5654486 -0.624605E-05  0.327E-03    4.26       7.4  T
   5    -27.5654486 -0.409627E-07  0.213E-03    4.26      11.4  T
   6    -27.5654486 -0.150053E-07  0.835E-04    4.26      29.1  T
   7    -27.5654486 -0.209292E-08  0.338E-04    4.26      71.8  T
     SCC iter.                  ...        0 min,  0.003 sec
     gradient                   ...        0 min,  0.003 sec
 * total energy  :   -27.1960812 Eh     change       -0.7729526E-03 Eh
   gradient norm :     0.0085194 Eh/α   predicted    -0.6276989E-03 ( -18.79%)
   displ. norm   :     0.0419195 α      lambda       -0.1450321E-03
   maximum displ.:     0.0298814 α      in ANC's #3, #10, #25, ...

........................................................................
.............................. CYCLE    3 ..............................
........................................................................
   1    -27.5687915 -0.275688E+02  0.463E-02    4.27       0.0  T
   2    -27.5687942 -0.272272E-05  0.268E-02    4.27       1.0  T
   3    -27.5687943 -0.946738E-07  0.156E-02    4.27       1.6  T
   4    -27.5687953 -0.944484E-06  0.200E-03    4.27      12.1  T
   5    -27.5687953 -0.208766E-07  0.114E-03    4.27      21.3  T
   6    -27.5687953 -0.459675E-08  0.670E-04    4.27      36.2  T
   7    -27.5687953 -0.152917E-08  0.216E-04    4.27     112.1  T
     SCC iter.                  ...        0 min,  0.003 sec
     gradient                   ...        0 min,  0.003 sec
 * total energy  :   -27.1961671 Eh     change       -0.8581025E-04 Eh
   gradient norm :     0.0034370 Eh/α   predicted    -0.7264336E-04 ( -15.34%)
   displ. norm   :     0.0205619 α      lambda       -0.2085412E-04
   maximum displ.:     0.0170581 α      in ANC's #3, #10, #16, ...

........................................................................
.............................. CYCLE    4 ..............................
........................................................................
   1    -27.5686756 -0.275687E+02  0.165E-02    4.27       0.0  T
   2    -27.5686762 -0.667660E-06  0.974E-03    4.27       2.5  T
   3    -27.5686764 -0.134344E-06  0.577E-03    4.27       4.2  T
   4    -27.5686765 -0.787421E-07  0.967E-04    4.27      25.1  T
   5    -27.5686765 -0.478022E-08  0.461E-04    4.27      52.6  T
     SCC iter.                  ...        0 min,  0.002 sec
     gradient                   ...        0 min,  0.003 sec
 * total energy  :   -27.1961808 Eh     change       -0.1378493E-04 Eh
   gradient norm :     0.0012936 Eh/α   predicted    -0.1043198E-04 ( -24.32%)
   displ. norm   :     0.0178497 α      lambda       -0.5385400E-05
   maximum displ.:     0.0135689 α      in ANC's #3, #10, #7, ...

........................................................................
.............................. CYCLE    5 ..............................
........................................................................
   1    -27.5679282 -0.275679E+02  0.116E-02    4.27       0.0  T
   2    -27.5679285 -0.305368E-06  0.702E-03    4.27       3.5  T
   3    -27.5679285 -0.480830E-07  0.402E-03    4.27       6.0  T
   4    -27.5679286 -0.423357E-07  0.688E-04    4.27      35.2  T
   5    -27.5679286 -0.226029E-08  0.315E-04    4.27      77.1  T
     SCC iter.                  ...        0 min,  0.002 sec
     gradient                   ...        0 min,  0.003 sec
 * total energy  :   -27.1961837 Eh     change       -0.2821779E-05 Eh
   gradient norm :     0.0007589 Eh/α   predicted    -0.2693388E-05 (  -4.55%)
   displ. norm   :     0.0044932 α      lambda       -0.6456743E-06
   maximum displ.:     0.0039993 α      in ANC's #3, #16, #10, ...

   *** GEOMETRY OPTIMIZATION CONVERGED AFTER 5 ITERATIONS ***

------------------------------------------------------------------------
 total energy gain   :        -0.0008754 Eh       -0.5493 kcal/mol
 total RMSD          :         0.0365127 a0        0.0193 Å
 total power (kW/mol):        -0.4596566 (step)  -56.9164 (real)
------------------------------------------------------------------------

 ANCopt (total)                0 d,  0 h,  0 min,  0.040 sec
 optimizer setup                ...        0 min,  0.000 sec (  0.448%)
 model hessian                  ...        0 min,  0.002 sec (  4.060%)
 ANC generation                 ...        0 min,  0.000 sec (  0.810%)
 coordinate transformation      ...        0 min,  0.000 sec (  0.089%)
 single point calculation       ...        0 min,  0.036 sec ( 89.608%)
 optimization log               ...        0 min,  0.001 sec (  2.770%)
 hessian update                 ...        0 min,  0.000 sec (  0.077%)
 rational function              ...        0 min,  0.001 sec (  1.375%)

================
 final structure:
================
17
 xtb: 6.4.1 (afa7bdf)
C        -0.67973475866255    1.19009566577369   -0.00001648301152
C        -0.76002807070167   -0.19672021086376    0.00006662084755
C         0.40802668811886   -0.95763808247256    0.00011168384430
C         1.64782902134632   -0.33992262197821    0.00006105058038
C         1.72731689538262    1.05204522294026   -0.00000744450312
C         0.56705088141442    1.79689266282871   -0.00003950033099
H         2.69910053470520    1.51816469212908   -0.00004144183323
H         0.62730447091873    2.87418899382741   -0.00009591391708
O         2.80691546820764   -1.04769138382828    0.00006518177450
H         2.62651440038856   -2.00006197878415    0.00017736767437
H        -1.56661941336019    1.80163235019444   -0.00005535735908
H         0.31415109022527   -2.03307254651192    0.00018080655540
O        -1.92111974439619   -0.91536951182628    0.00012135939129
C        -3.15090140543059   -0.21609669039005   -0.00024901528128
H        -3.25270207626384    0.40386383236883   -0.89473631579066
H        -3.91776182318580   -0.98743170389808   -0.00019797932406
H        -3.25302715870677    0.40429031049088    0.89390438068323
 
 Bond Distances (Angstroems)
 ---------------------------
C1-C2=1.3891         C1-C6=1.3866         C1-H11=1.0773        C2-C1=1.3891         C2-C3=1.3940         C2-O13=1.3655        
C3-C2=1.3940         C3-C4=1.3852         C3-H12=1.0795        C4-C3=1.3852         C4-C5=1.3942         C4-O9=1.3581         
C5-C4=1.3942         C5-C6=1.3788         C5-H7=1.0778         C6-C1=1.3866         C6-C5=1.3788         C6-H8=1.0790         
H7-C5=1.0778         H8-C6=1.0790         O9-C4=1.3581         O9-H10=0.9693        H10-O9=0.9693        H11-C1=1.0773        
H12-C3=1.0795        O13-C2=1.3655        O13-C14=1.4147       C14-O13=1.4147       C14-H15=1.0931       C14-H16=1.0877       
C14-H17=1.0931       H15-C14=1.0931       H16-C14=1.0877       H17-C14=1.0931       
 C  H  Rav=1.0839 sigma=0.0066  Rmin=1.0773  Rmax=1.0931     7
 C  C  Rav=1.3880 sigma=0.0054  Rmin=1.3788  Rmax=1.3942     6
 O  H  Rav=0.9693 sigma=0.0000  Rmin=0.9693  Rmax=0.9693     1
 O  C  Rav=1.3794 sigma=0.0251  Rmin=1.3581  Rmax=1.4147     3
 
 selected bond angles (degree)
 --------------------
C6-C1-C2=119.27                H11-C1-C2=121.27               H11-C1-C6=119.46               C3-C2-C1=119.77                
O13-C2-C1=125.07               O13-C2-C3=115.16               C4-C3-C2=120.43                H12-C3-C2=118.09               
H12-C3-C4=121.47               C5-C4-C3=119.75                O9-C4-C3=122.11                O9-C4-C5=118.14                
C6-C5-C4=119.43                H7-C5-C4=118.89                H7-C5-C6=121.68                C5-C6-C1=121.35                
H8-C6-C1=119.15                H8-C6-C5=119.50                H10-O9-C4=110.68               
 
 selected dihedral angles (degree)
 ---------------------------------
C3-C2-C1-C6=  0.00            C3-C2-C1-H11=180.00           O13-C2-C1-C6=180.00           O13-C2-C1-H11=  0.00          
C4-C3-C2-C1=  0.00            C4-C3-C2-O13=180.00           H12-C3-C2-C1=180.00           H12-C3-C2-O13=  0.00          
C5-C4-C3-C2=  0.00            C5-C4-C3-H12=180.00           O9-C4-C3-C2=180.00            O9-C4-C3-H12=  0.00           
C6-C5-C4-C3=  0.00            C6-C5-C4-O9=180.00            H7-C5-C4-C3=180.00            H7-C5-C4-O9=  0.00            
C5-C6-C1-C2=  0.00            C5-C6-C1-H11=180.00           H8-C6-C1-C2=180.00            H8-C6-C1-H11=  0.00           
C1-C6-C5-C4=  0.00            C1-C6-C5-H7=180.00            H8-C6-C5-C4=180.00            H8-C6-C5-H7=  0.00            
H10-O9-C4-C3=  0.00           H10-O9-C4-C5=180.00           
           -------------------------------------------------
          |                Final Singlepoint                |
           -------------------------------------------------

          ...................................................
          :                      SETUP                      :
          :.................................................:
          :  # basis functions                  44          :
          :  # atomic orbitals                  44          :
          :  # shells                           26          :
          :  # electrons                        48          :
          :  max. iterations                   250          :
          :  Hamiltonian                  GFN2-xTB          :
          :  restarted?                      false          :
          :  GBSA solvation                   true          :
          :  PC potential                    false          :
          :  electronic temp.          300.0000000     K    :
          :  accuracy                    1.0000000          :
          :  -> integral cutoff          0.2500000E+02      :
          :  -> integral neglect         0.1000000E-07      :
          :  -> SCF convergence          0.1000000E-05 Eh   :
          :  -> wf. convergence          0.1000000E-03 e    :
          :  Broyden damping             0.4000000          :
          ...................................................

 iter      E             dE          RMSdq      gap      omega  full diag
   1    -27.5679286 -0.275679E+02  0.191E-04    4.27       0.0  T
   2    -27.5679286 -0.566089E-10  0.129E-04    4.27     188.4  T
   3    -27.5679286 -0.178773E-10  0.751E-05    4.27     323.0  T

   *** convergence criteria satisfied after 3 iterations ***

         #    Occupation            Energy/Eh            Energy/eV
      -------------------------------------------------------------
         1        2.0000           -0.7168078             -19.5053
       ...           ...                  ...                  ...
        18        2.0000           -0.4703480             -12.7988
        19        2.0000           -0.4634544             -12.6112
        20        2.0000           -0.4385970             -11.9348
        21        2.0000           -0.4381053             -11.9215
        22        2.0000           -0.4262417             -11.5986
        23        2.0000           -0.3892445             -10.5919
        24        2.0000           -0.3759401             -10.2298 (HOMO)
        25                         -0.2190761              -5.9614 (LUMO)
        26                         -0.2079762              -5.6593
        27                         -0.0850940              -2.3155
        28                          0.0236229               0.6428
        29                          0.0824280               2.2430
       ...                                ...                  ...
        44                          0.6757445              18.3879
      -------------------------------------------------------------
                  HL-Gap            0.1568640 Eh            4.2685 eV
             Fermi-level           -0.2975081 Eh           -8.0956 eV

 SCC (total)                   0 d,  0 h,  0 min,  0.007 sec
 SCC setup                      ...        0 min,  0.000 sec (  5.230%)
 Dispersion                     ...        0 min,  0.000 sec (  0.594%)
 classical contributions        ...        0 min,  0.000 sec (  0.214%)
 integral evaluation            ...        0 min,  0.001 sec ( 20.920%)
 iterations                     ...        0 min,  0.002 sec ( 26.012%)
 molecular gradient             ...        0 min,  0.003 sec ( 44.145%)
 printout                       ...        0 min,  0.000 sec (  2.537%)

         :::::::::::::::::::::::::::::::::::::::::::::::::::::
         ::                     SUMMARY                     ::
         :::::::::::::::::::::::::::::::::::::::::::::::::::::
         :: total energy             -27.196183666964 Eh    ::
         :: total w/o Gsasa/hb       -27.191369750625 Eh    ::
         :: gradient norm              0.000756580446 Eh/a0 ::
         :: HOMO-LUMO gap              4.268485794644 eV    ::
         ::.................................................::
         :: SCC energy               -27.567928572977 Eh    ::
         :: -> isotropic ES            0.045936714840 Eh    ::
         :: -> anisotropic ES          0.003187388307 Eh    ::
         :: -> anisotropic XC          0.006899520783 Eh    ::
         :: -> dispersion             -0.012604584411 Eh    ::
         :: -> Gsolv                  -0.010982070780 Eh    ::
         ::    -> Gelec               -0.006168154440 Eh    ::
         ::    -> Gsasa                0.000768206282 Eh    ::
         ::    -> Ghb                 -0.006662882319 Eh    ::
         ::    -> Gshift               0.001080759698 Eh    ::
         :: repulsion energy           0.371733280668 Eh    ::
         :: add. restraining           0.000000000000 Eh    ::
         :: total charge               0.000000000000 e     ::
         :::::::::::::::::::::::::::::::::::::::::::::::::::::

           ------------------------------------------------- 
          |                Numerical Hessian                |
           ------------------------------------------------- 
step length          :   0.00500
SCC accuracy         :   0.30000
Hessian scale factor :   1.00000
frozen atoms in %    :   0.00000    0
RMS gradient         :   0.00076
estimated CPU  time      0.01 min
estimated wall time      0.01 min

writing file <hessian>.

 projected vibrational frequencies (cm⁻¹)
eigval :       -0.00    -0.00    -0.00     0.00     0.00     0.00
eigval :       86.90   194.76   223.72   229.54   254.67   352.46
eigval :      395.78   430.53   441.23   497.71   555.13   588.28
eigval :      652.74   731.67   781.07   850.06   861.40   916.49
eigval :      937.83   984.91  1054.68  1102.99  1115.10  1118.29
eigval :     1146.26  1149.37  1193.67  1266.21  1284.00  1341.76
eigval :     1389.22  1443.42  1458.83  1472.36  1474.38  1586.67
eigval :     1601.12  2944.46  2957.05  3033.80  3088.86  3090.71
eigval :     3110.27  3116.81  3454.73
           -------------------------------------------------
          |                Property Printout                |
           -------------------------------------------------

    * Orbital Energies and Occupations

         #    Occupation            Energy/Eh            Energy/eV
      -------------------------------------------------------------
         1        2.0000           -0.7168081             -19.5053
       ...           ...                  ...                  ...
        12        2.0000           -0.5251550             -14.2902
        13        2.0000           -0.5193566             -14.1324
        14        2.0000           -0.5139548             -13.9854
        15        2.0000           -0.5115053             -13.9188
        16        2.0000           -0.4810323             -13.0896
        17        2.0000           -0.4736832             -12.8896
        18        2.0000           -0.4703483             -12.7988
        19        2.0000           -0.4634549             -12.6112
        20        2.0000           -0.4385972             -11.9348
        21        2.0000           -0.4381055             -11.9215
        22        2.0000           -0.4262418             -11.5986
        23        2.0000           -0.3892447             -10.5919
        24        2.0000           -0.3759403             -10.2299 (HOMO)
        25                         -0.2190761              -5.9614 (LUMO)
        26                         -0.2079764              -5.6593
        27                         -0.0850941              -2.3155
        28                          0.0236225               0.6428
        29                          0.0824280               2.2430
        30                          0.1172945               3.1917
        31                          0.1222537               3.3267
        32                          0.1473539               4.0097
        33                          0.1734198               4.7190
        34                          0.1917009               5.2164
        35                          0.1996060               5.4316
       ...                                ...                  ...
        44                          0.6757444              18.3879
      -------------------------------------------------------------
                  HL-Gap            0.1568642 Eh            4.2685 eV
             Fermi-level           -0.2975082 Eh           -8.0956 eV

     #   Z          covCN         q      C6AA      α(0)
     1   6 C        2.916    -0.085    30.125     9.000
     2   6 C        2.864     0.139    24.960     8.189
     3   6 C        2.920    -0.105    30.651     9.079
     4   6 C        2.846     0.146    24.819     8.165
     5   6 C        2.918    -0.075    29.872     8.963
     6   6 C        2.922    -0.039    28.966     8.826
     7   1 H        0.926     0.050     2.324     2.384
     8   1 H        0.926     0.048     2.349     2.397
     9   8 O        1.659    -0.454    21.916     6.320
    10   1 H        0.804     0.374     0.535     1.149
    11   1 H        0.926     0.045     2.379     2.412
    12   1 H        0.926     0.052     2.300     2.372
    13   8 O        1.705    -0.304    19.066     5.895
    14   6 C        3.641     0.022    20.564     6.520
    15   1 H        0.924     0.053     2.278     2.360
    16   1 H        0.925     0.080     1.983     2.202
    17   1 H        0.924     0.053     2.278     2.360

 Mol. C6AA /au·bohr⁶  :       3200.600006
 Mol. C8AA /au·bohr⁸  :      75578.912402
 Mol. α(0) /au        :         88.593387


Wiberg/Mayer (AO) data.
largest (>0.10) Wiberg bond orders for each atom

 ---------------------------------------------------------------------------
     #   Z sym  total        # sym  WBO       # sym  WBO       # sym  WBO
 ---------------------------------------------------------------------------
     1   6 C    3.983 --     6 C    1.424     2 C    1.377    11 H    0.966
     2   6 C    3.934 --     1 C    1.377     3 C    1.357    13 O    1.055
     3   6 C    3.977 --     4 C    1.398     2 C    1.357    12 H    0.964
                             6 C    0.102
     4   6 C    3.941 --     3 C    1.398     5 C    1.344     9 O    1.079
     5   6 C    3.985 --     6 C    1.465     4 C    1.344     7 H    0.969
     6   6 C    3.991 --     5 C    1.465     1 C    1.424     8 H    0.970
                             3 C    0.102
     7   1 H    0.997 --     5 C    0.969
     8   1 H    0.998 --     6 C    0.970
     9   8 O    2.080 --     4 C    1.079    10 H    0.840
    10   1 H    0.860 --     9 O    0.840
    11   1 H    0.998 --     1 C    0.966
    12   1 H    0.997 --     3 C    0.964
    13   8 O    2.206 --     2 C    1.055    14 C    0.972
    14   6 C    3.932 --    16 H    0.978    15 H    0.977    17 H    0.977
                            13 O    0.972
    15   1 H    0.997 --    14 C    0.977
    16   1 H    0.993 --    14 C    0.978
    17   1 H    0.997 --    14 C    0.977
 ---------------------------------------------------------------------------

Topologies differ in total number of bonds
Writing topology from bond orders to xtbtopo.mol

molecular dipole:
                 x           y           z       tot (Debye)
 q only:       -0.617      -0.135      -0.000
   full:       -0.769      -0.175      -0.000       2.005
molecular quadrupole (traceless):
                xx          xy          yy          xz          yz          zz
 q only:        1.553      -5.261       2.491       0.002      -0.000      -4.044
  q+dip:       -0.212      -5.650       5.586       0.002      -0.001      -5.374
   full:       -0.412      -6.072       4.237       0.002      -0.000      -3.825

           -------------------------------------------------
          |                Geometry Summary                 |
           -------------------------------------------------

      molecular mass/u    :      124.1374871
   center of mass at/Å    :        0.0444333      -0.0116134       0.0000098
  moments of inertia/u·Å² :        0.1384885E+03   0.4466014E+03   0.5818652E+03
rotational constants/cm⁻¹ :        0.1217259E+00   0.3774648E-01   0.2897171E-01

 * 17 selected distances

     #   Z          #   Z                                           value/Å
     1   6 C        2   6 C                                       1.3891383
     2   6 C        3   6 C                                       1.3940401
     3   6 C        4   6 C                                       1.3851651
     4   6 C        5   6 C                                       1.3942356
     1   6 C        6   6 C                                       1.3866063
     5   6 C        6   6 C                                       1.3787730
     5   6 C        7   1 H                                       1.0777898
     6   6 C        8   1 H                                       1.0789800
     4   6 C        9   8 O                                       1.3580935
     9   8 O       10   1 H                                       0.9693061 (min)
     1   6 C       11   1 H                                       1.0772843
     3   6 C       12   1 H                                       1.0795239
     2   6 C       13   8 O                                       1.3655002
    13   8 O       14   6 C                                       1.4146892 (max)
    14   6 C       15   1 H                                       1.0930791
    14   6 C       16   1 H                                       1.0876730
    14   6 C       17   1 H                                       1.0930782

 * 4 distinct bonds (by element types)

   Z      Z             #   av. dist./Å        max./Å        min./Å
   1 H    6 C           7     1.0839155     1.0930791     1.0772843
   6 C    6 C           6     1.3879931     1.3942356     1.3787730
   1 H    8 O           1     0.9693061     0.9693061     0.9693061
   6 C    8 O           3     1.3794276     1.4146892     1.3580935

           -------------------------------------------------
          |               Frequency Printout                |
           -------------------------------------------------
 projected vibrational frequencies (cm⁻¹)
eigval :       -0.00    -0.00    -0.00     0.00     0.00     0.00
eigval :       86.90   194.76   223.72   229.54   254.67   352.46
eigval :      395.78   430.53   441.23   497.71   555.13   588.28
eigval :      652.74   731.67   781.07   850.06   861.40   916.49
eigval :      937.83   984.91  1054.68  1102.99  1115.10  1118.29
eigval :     1146.26  1149.37  1193.67  1266.21  1284.00  1341.76
eigval :     1389.22  1443.42  1458.83  1472.36  1474.38  1586.67
eigval :     1601.12  2944.46  2957.05  3033.80  3088.86  3090.71
eigval :     3110.27  3116.81  3454.73
 reduced masses (amu)
   1: 11.36   2: 12.01   3: 12.37   4: 12.06   5: 11.83   6: 12.51   7: 10.42   8:  6.20
   9: 10.28  10: 12.23  11:  6.03  12: 11.58  13:  2.70  14:  8.94  15: 11.18  16: 12.77
  17: 11.50  18: 11.49  19: 10.05  20: 12.33  21:  3.89  22:  3.51  23:  3.78  24:  3.22
  25: 10.74  26: 11.09  27: 10.51  28:  4.10  29:  3.70  30:  3.82  31:  6.97  32:  4.60
  33:  2.85  34:  4.04  35: 11.21  36: 11.75  37:  2.56  38:  9.85  39:  1.54  40:  3.11
  41:  8.30  42: 11.56  43: 11.58  44:  1.96  45:  1.44  46:  1.70  47:  1.79  48:  1.83
  49:  1.84  50:  1.87  51:  1.86
 IR intensities (km·mol⁻¹)
   1:  0.13   2:  0.24   3:  0.20   4:  0.11   5:  0.04   6:  0.04   7:  3.62   8:  3.12
   9:  3.81  10:  5.01  11:  4.66  12:  6.87  13:180.65  14: 25.57  15:  9.39  16:  7.21
  17: 16.40  18:  0.17  19:  3.00  20: 29.60  21: 69.65  22:  5.11  23:  0.02  24:  0.01
  25: 63.95  26:  5.73  27: 54.67  28:156.80  29:  2.84  30:215.33  31:559.36  32:  3.26
  33: 89.29  34: 15.00  35:155.18  36: 30.93  37:  1.70  38: 23.05  39:  7.09  40: 78.74
  41:133.77  42:142.17  43:282.70  44: 46.67  45: 45.93  46: 17.20  47: 32.26  48: 70.48
  49: 75.69  50: 44.90  51:137.96
 Raman intensities (amu)
   1:  0.00   2:  0.00   3:  0.00   4:  0.00   5:  0.00   6:  0.00   7:  0.00   8:  0.00
   9:  0.00  10:  0.00  11:  0.00  12:  0.00  13:  0.00  14:  0.00  15:  0.00  16:  0.00
  17:  0.00  18:  0.00  19:  0.00  20:  0.00  21:  0.00  22:  0.00  23:  0.00  24:  0.00
  25:  0.00  26:  0.00  27:  0.00  28:  0.00  29:  0.00  30:  0.00  31:  0.00  32:  0.00
  33:  0.00  34:  0.00  35:  0.00  36:  0.00  37:  0.00  38:  0.00  39:  0.00  40:  0.00
  41:  0.00  42:  0.00  43:  0.00  44:  0.00  45:  0.00  46:  0.00  47:  0.00  48:  0.00
  49:  0.00  50:  0.00  51:  0.00
 output can be read by thermo (or use thermo option).
 writing <g98.out> molden fake output.
 recommended (thermochemical) frequency scaling factor: 1.0
           -------------------------------------------------
          |             Thermodynamic Functions             |
           -------------------------------------------------

Molecule has the following symmetry elements: (sigma) 
It seems to be the Cs point group
cs  symmetry found (for desy threshold:  0.10E+00) used in thermo

          ...................................................
          :                      SETUP                      :
          :.................................................:
          :  # frequencies                          45      :
          :  # imaginary freq.                       0      :
          :  linear?                             false      :
          :  only rotor calc.                    false      :
          :  symmetry                               cs      :
          :  rotational number                       1      :
          :  scaling factor                  1.0000000      :
          :  rotor cutoff                   50.0000000 cm⁻¹ :
          :  imag. cutoff                  -20.0000000 cm⁻¹ :
          :.................................................:

    mode    ω/cm⁻¹     T·S(HO)/kcal·mol⁻¹    T·S(FR)/kcal·mol⁻¹   T·S(vib)
   ------------------------------------------------------------------------
       1     86.90    -1.11171 ( 90.12%)    -0.89266 (  9.88%)    -1.09007
       2    194.76    -0.65057 ( 99.57%)    -0.65367 (  0.43%)    -0.65058
       3    223.72    -0.57505 ( 99.75%)    -0.61261 (  0.25%)    -0.57515
       4    229.54    -0.56129 ( 99.78%)    -0.60501 (  0.22%)    -0.56139
       5    254.67    -0.50626 ( 99.85%)    -0.57423 (  0.15%)    -0.50636
   ------------------------------------------------------------------------

   temp. (K)  partition function   enthalpy   heat capacity  entropy
                                   cal/mol     cal/K/mol   cal/K/mol   J/K/mol
 298.15  VIB   43.9                 3429.701     26.093     18.947
         ROT  0.458E+06              888.752      2.981     28.885
         INT  0.201E+08             4318.453     29.074     47.832
         TR   0.134E+28             1481.254      4.968     40.344
         TOT                        5799.7069    34.0418    88.1760   368.9286

       T/K    H(0)-H(T)+PV         H(T)/Eh          T*S/Eh         G(T)/Eh
   ------------------------------------------------------------------------
    298.15    0.924242E-02    0.141289E+00    0.418953E-01    0.993942E-01
   ------------------------------------------------------------------------

         :::::::::::::::::::::::::::::::::::::::::::::::::::::
         ::                  THERMODYNAMIC                  ::
         :::::::::::::::::::::::::::::::::::::::::::::::::::::
         :: total free energy         -27.096789501493 Eh   ::
         ::.................................................::
         :: total energy              -27.196183667795 Eh   ::
         :: zero point energy           0.132047030016 Eh   ::
         :: G(RRHO) w/o ZPVE           -0.032652863714 Eh   ::
         :: G(RRHO) contrib.            0.099394166302 Eh   ::
         :::::::::::::::::::::::::::::::::::::::::::::::::::::

optimized geometry written to: xtbopt.xyz


           -------------------------------------------------
          | TOTAL ENERGY              -27.196183667795 Eh   |
          | TOTAL ENTHALPY            -27.054894216591 Eh   |
          | TOTAL FREE ENERGY         -27.096789501493 Eh   |
          | GRADIENT NORM               0.000755871328 Eh/α |
          | HOMO-LUMO GAP               4.268493456796 eV   |
           -------------------------------------------------

------------------------------------------------------------------------
 * finished run on 2021/11/15 at 09:36:11.236     
------------------------------------------------------------------------
 total:
 * wall-time:     0 d,  0 h,  0 min,  0.788 sec
 *  cpu-time:     0 d,  0 h,  0 min,  0.781 sec
 * ratio c/w:     0.992 speedup
 SCF:
 * wall-time:     0 d,  0 h,  0 min,  0.009 sec
 *  cpu-time:     0 d,  0 h,  0 min,  0.016 sec
 * ratio c/w:     1.660 speedup
 ANC optimizer:
 * wall-time:     0 d,  0 h,  0 min,  0.049 sec
 *  cpu-time:     0 d,  0 h,  0 min,  0.047 sec
 * ratio c/w:     0.960 speedup
 analytical hessian:
 * wall-time:     0 d,  0 h,  0 min,  0.694 sec
 *  cpu-time:     0 d,  0 h,  0 min,  0.688 sec
 * ratio c/w:     0.990 speedup

