 Entering Gaussian System
 *********************************************
 Gaussian 98:
 frequency output generated by the xtb code
 *********************************************
                         Standard orientation:
 --------------------------------------------------------------------
  Center     Atomic     Atomic              Coordinates (Angstroms)
  Number     Number      Type              X           Y           Z
 --------------------------------------------------------------------
    1          6             0       -0.679729    1.190099   -0.000016
    2          6             0       -0.760029   -0.196716    0.000070
    3          6             0        0.408022   -0.957640    0.000112
    4          6             0        1.647827   -0.339931    0.000056
    5          6             0        1.727322    1.052036   -0.000015
    6          6             0        0.567060    1.796890   -0.000045
    7          1             0        2.699108    1.518151   -0.000054
    8          1             0        0.627320    2.874186   -0.000103
    9          8             0        2.806910   -1.047706    0.000057
   10          1             0        2.626504   -2.000076    0.000172
   11          1             0       -1.566610    1.801641   -0.000053
   12          1             0        0.314140   -2.033074    0.000183
   13          8             0       -1.921125   -0.915359    0.000130
   14          6             0       -3.150903   -0.216080   -0.000238
   15          1             0       -3.252703    0.403879   -0.894726
   16          1             0       -3.917767   -0.987411   -0.000183
   17          1             0       -3.253022    0.404309    0.893915
 --------------------------------------------------------------------
     1 basis functions        1 primitive gaussians
     1 alpha electrons        1 beta electrons
 
 Harmonic frequencies (cm**-1), IR intensities (km*mol⁻¹),
 Raman scattering activities (A**4/amu), Raman depolarization ratios,
 reduced masses (AMU), force constants (mDyne/A) and normal coordinates:
                      1                      2                      3
                        a                      a                      a 
 Frequencies --    86.8990               194.7624               223.7241
 Red. masses --    10.4162                 6.2009                10.2828
 Frc consts  --     0.0000                 0.0000                 0.0000
 IR Inten    --     3.6224                 3.1153                 3.8130
 Raman Activ --     0.0000                 0.0000                 0.0000
 Depolar     --     0.0000                 0.0000                 0.0000
 Atom AN      X      Y      Z        X      Y      Z        X      Y      Z
   1   6    -0.00   0.00   0.22     0.00   0.00  -0.33    -0.08  -0.28  -0.00
   2   6    -0.00   0.00   0.27    -0.00   0.00  -0.12     0.02  -0.29   0.00
   3   6    -0.00   0.00   0.19    -0.00   0.00  -0.13     0.07  -0.22   0.00
   4   6    -0.00  -0.00  -0.04    -0.00   0.00   0.03     0.00  -0.03   0.00
   5   6    -0.00  -0.00  -0.11     0.00   0.00   0.40    -0.13  -0.02   0.00
   6   6     0.00   0.00   0.05     0.00   0.00   0.07    -0.18  -0.12  -0.00
   7   1    -0.00  -0.00  -0.08     0.00  -0.00   0.22    -0.05   0.01   0.00
   8   1     0.00   0.00   0.00     0.00   0.00   0.04    -0.09  -0.03  -0.00
   9   8    -0.00  -0.00  -0.29    -0.00  -0.00  -0.17     0.22   0.31  -0.00
  10   1    -0.00  -0.00  -0.04    -0.00  -0.00  -0.12     0.13   0.06  -0.00
  11   1    -0.00   0.00   0.09     0.00   0.00  -0.19    -0.03  -0.10  -0.00
  12   1    -0.00   0.00   0.07    -0.00   0.00  -0.05     0.06  -0.07   0.00
  13   8    -0.00   0.00   0.44     0.00   0.00   0.30    -0.17  -0.05  -0.00
  14   6     0.00  -0.00  -0.56    -0.00  -0.00  -0.02     0.17   0.54  -0.00
  15   1     0.16  -0.07  -0.23    -0.11  -0.32  -0.22     0.14   0.17  -0.00
  16   1     0.00  -0.00  -0.24    -0.00  -0.00   0.37    -0.06   0.27   0.00
  17   1    -0.16   0.07  -0.23     0.11   0.32  -0.22     0.14   0.17   0.00
                      4                      5                      6
                        a                      a                      a 
 Frequencies --   229.5359               254.6709               352.4648
 Red. masses --    12.2292                 6.0348                11.5777
 Frc consts  --     0.0000                 0.0000                 0.0000
 IR Inten    --     5.0133                 4.6635                 6.8733
 Raman Activ --     0.0000                 0.0000                 0.0000
 Depolar     --     0.0000                 0.0000                 0.0000
 Atom AN      X      Y      Z        X      Y      Z        X      Y      Z
   1   6     0.00   0.00  -0.19    -0.00  -0.00   0.36     0.15  -0.00   0.00
   2   6    -0.00   0.00   0.13    -0.00  -0.00   0.08    -0.05   0.01  -0.00
   3   6    -0.00   0.00   0.63     0.00  -0.00   0.14    -0.05  -0.13   0.00
   4   6    -0.00   0.00   0.22     0.00  -0.00  -0.04     0.01  -0.16   0.00
   5   6     0.00   0.00   0.16    -0.00  -0.00  -0.33     0.09  -0.18  -0.00
   6   6     0.00   0.00  -0.00    -0.00  -0.00   0.09     0.19  -0.07   0.00
   7   1     0.00  -0.00   0.01    -0.00  -0.00  -0.20     0.05  -0.09  -0.00
   8   1     0.00   0.00  -0.05    -0.00  -0.00   0.03     0.08  -0.02  -0.00
   9   8    -0.00  -0.00  -0.48     0.00   0.00   0.09     0.38   0.38  -0.00
  10   1    -0.00  -0.00  -0.08     0.00   0.00   0.10     0.25   0.07  -0.00
  11   1     0.00   0.00  -0.18     0.00  -0.00   0.15     0.05   0.01   0.00
  12   1    -0.00   0.00   0.24     0.00  -0.00   0.05    -0.04  -0.04   0.00
  13   8     0.00  -0.00  -0.37    -0.00  -0.00  -0.35    -0.26   0.25  -0.00
  14   6    -0.00  -0.00   0.03    -0.00   0.00  -0.05    -0.47  -0.11  -0.00
  15   1    -0.05   0.05   0.05    -0.21  -0.29  -0.19    -0.20  -0.04   0.00
  16   1     0.00  -0.00   0.01    -0.00   0.00   0.43    -0.05  -0.12  -0.00
  17   1     0.05  -0.05   0.05     0.21   0.29  -0.19    -0.20  -0.04  -0.00
                      7                      8                      9
                        a                      a                      a 
 Frequencies --   395.7806               430.5310               441.2326
 Red. masses --     2.6975                 8.9389                11.1841
 Frc consts  --     0.0000                 0.0000                 0.0000
 IR Inten    --   180.6473                25.5743                 9.3948
 Raman Activ --     0.0000                 0.0000                 0.0000
 Depolar     --     0.0000                 0.0000                 0.0000
 Atom AN      X      Y      Z        X      Y      Z        X      Y      Z
   1   6     0.00  -0.00  -0.12    -0.00  -0.00  -0.30     0.13  -0.26   0.00
   2   6     0.00  -0.00  -0.14     0.00  -0.00  -0.27    -0.07  -0.25   0.00
   3   6     0.00  -0.00   0.01     0.00   0.00   0.24     0.22   0.17   0.00
   4   6     0.00   0.00  -0.11    -0.00  -0.00  -0.29     0.22   0.32  -0.00
   5   6     0.00   0.00  -0.02    -0.00  -0.00  -0.31     0.32   0.31  -0.00
   6   6     0.00  -0.00   0.20    -0.00   0.00   0.49     0.05  -0.06  -0.00
   7   1     0.00   0.00   0.03    -0.00  -0.00  -0.07     0.06   0.15  -0.00
   8   1    -0.00   0.00   0.16    -0.00   0.00   0.36    -0.09  -0.01  -0.00
   9   8     0.00  -0.00  -0.21    -0.00  -0.00   0.20    -0.07  -0.22   0.00
  10   1     0.00   0.00   0.91    -0.00  -0.00  -0.28    -0.17  -0.03  -0.00
  11   1     0.00  -0.00  -0.02    -0.00  -0.00  -0.07     0.04  -0.07   0.00
  12   1     0.00  -0.00   0.07    -0.00   0.00   0.27     0.20   0.04   0.00
  13   8    -0.00   0.00   0.07     0.00   0.00   0.12    -0.34  -0.06   0.00
  14   6    -0.00   0.00   0.01     0.00  -0.00   0.01    -0.33   0.06  -0.00
  15   1     0.01   0.01   0.01     0.03   0.02   0.01    -0.09   0.02  -0.00
  16   1    -0.00  -0.00  -0.02     0.00  -0.00  -0.03    -0.10   0.02  -0.00
  17   1    -0.01  -0.01   0.01    -0.03  -0.02   0.01    -0.09   0.02   0.00
                     10                     11                     12
                        a                      a                      a 
 Frequencies --   497.7136               555.1323               588.2797
 Red. masses --    12.7658                11.4982                11.4877
 Frc consts  --     0.0000                 0.0000                 0.0000
 IR Inten    --     7.2087                16.4005                 0.1663
 Raman Activ --     0.0000                 0.0000                 0.0000
 Depolar     --     0.0000                 0.0000                 0.0000
 Atom AN      X      Y      Z        X      Y      Z        X      Y      Z
   1   6     0.39  -0.12  -0.00     0.10  -0.15   0.00    -0.00   0.00   0.15
   2   6    -0.00  -0.14   0.00     0.37  -0.12  -0.00    -0.00  -0.00  -0.64
   3   6    -0.15  -0.22   0.00     0.19  -0.38   0.00    -0.00   0.00  -0.01
   4   6    -0.37   0.12  -0.00    -0.04   0.02   0.00     0.00   0.00   0.65
   5   6     0.17   0.06  -0.00    -0.25   0.08  -0.00     0.00  -0.00  -0.15
   6   6     0.30   0.14   0.00    -0.17   0.24  -0.00     0.00  -0.00   0.01
   7   1     0.11  -0.12   0.00    -0.07   0.02  -0.00     0.00  -0.00  -0.19
   8   1     0.04   0.04   0.00    -0.08   0.07  -0.00     0.00  -0.00  -0.00
   9   8    -0.45   0.37  -0.00    -0.14  -0.13  -0.00     0.00   0.00  -0.17
  10   1    -0.06   0.08   0.00    -0.11  -0.02  -0.00     0.00   0.00  -0.05
  11   1     0.12  -0.02  -0.00    -0.06  -0.18   0.00     0.00   0.00   0.17
  12   1     0.02  -0.07   0.00     0.09  -0.11   0.00    -0.00   0.00   0.02
  13   8     0.00  -0.16   0.00     0.18   0.49  -0.00    -0.00  -0.00   0.16
  14   6     0.09  -0.05   0.00    -0.11   0.01  -0.00     0.00  -0.00   0.02
  15   1     0.05  -0.01   0.00    -0.15  -0.02  -0.00     0.02  -0.01  -0.00
  16   1    -0.01   0.02  -0.00     0.11  -0.14   0.00    -0.00   0.00  -0.01
  17   1     0.05  -0.01  -0.00    -0.15  -0.02   0.00    -0.02   0.01  -0.00
                     13                     14                     15
                        a                      a                      a 
 Frequencies --   652.7426               731.6747               781.0738
 Red. masses --    10.0540                12.3316                 3.8896
 Frc consts  --     0.0000                 0.0000                 0.0000
 IR Inten    --     2.9991                29.5991                69.6464
 Raman Activ --     0.0000                 0.0000                 0.0000
 Depolar     --     0.0000                 0.0000                 0.0000
 Atom AN      X      Y      Z        X      Y      Z        X      Y      Z
   1   6     0.00  -0.00  -0.33     0.20   0.16  -0.00     0.00   0.00   0.25
   2   6     0.00   0.00   0.45    -0.01  -0.02  -0.00    -0.00  -0.00  -0.23
   3   6     0.00  -0.00  -0.30    -0.01  -0.15   0.00    -0.00   0.00   0.18
   4   6     0.00   0.00   0.44     0.05  -0.09   0.00    -0.00  -0.00  -0.21
   5   6    -0.00  -0.00  -0.32    -0.24   0.08  -0.00    -0.00   0.00   0.16
   6   6    -0.00   0.00   0.37     0.05   0.66  -0.00     0.00   0.00   0.18
   7   1    -0.00  -0.00  -0.24    -0.03  -0.04   0.00    -0.00  -0.00  -0.42
   8   1    -0.00   0.00  -0.00     0.04   0.18   0.00    -0.00  -0.00  -0.35
   9   8    -0.00  -0.00  -0.04     0.27  -0.23   0.00     0.00  -0.00   0.06
  10   1     0.00  -0.00   0.01     0.04  -0.05  -0.00    -0.00   0.00   0.02
  11   1    -0.00  -0.00  -0.24     0.02  -0.00   0.00     0.00  -0.00  -0.58
  12   1     0.00  -0.00  -0.26    -0.03  -0.04   0.00    -0.00  -0.00  -0.32
  13   8     0.00   0.00  -0.04    -0.22  -0.37   0.00    -0.00  -0.00   0.07
  14   6    -0.00   0.00  -0.00    -0.10   0.00  -0.00     0.00  -0.00   0.00
  15   1    -0.01   0.01   0.01     0.06   0.02   0.00     0.01   0.01   0.01
  16   1     0.00  -0.00  -0.01    -0.14   0.11  -0.00    -0.00   0.00  -0.03
  17   1     0.01  -0.01   0.01     0.06   0.02  -0.00    -0.01  -0.01   0.01
                     16                     17                     18
                        a                      a                      a 
 Frequencies --   850.0602               861.4029               916.4862
 Red. masses --     3.5083                 3.7789                 3.2200
 Frc consts  --     0.0000                 0.0000                 0.0000
 IR Inten    --     5.1100                 0.0208                 0.0058
 Raman Activ --     0.0000                 0.0000                 0.0000
 Depolar     --     0.0000                 0.0000                 0.0000
 Atom AN      X      Y      Z        X      Y      Z        X      Y      Z
   1   6     0.00  -0.00  -0.25    -0.00   0.00   0.26     0.00  -0.00  -0.11
   2   6     0.00  -0.00  -0.03    -0.00  -0.00  -0.06    -0.00  -0.00  -0.07
   3   6     0.00   0.00   0.40     0.00   0.00   0.13    -0.00   0.00   0.08
   4   6    -0.00  -0.00  -0.07    -0.00   0.00   0.10    -0.00  -0.00  -0.05
   5   6     0.00   0.00   0.03    -0.00  -0.00  -0.37    -0.00  -0.00  -0.19
   6   6     0.00  -0.00  -0.06     0.00  -0.00  -0.10     0.00   0.00   0.37
   7   1     0.00  -0.00  -0.07     0.00   0.00   0.65     0.00   0.00   0.40
   8   1     0.00   0.00   0.18    -0.00   0.00   0.22    -0.00  -0.00  -0.75
   9   8     0.00   0.00   0.02     0.00  -0.00  -0.02     0.00  -0.00  -0.00
  10   1    -0.00   0.00   0.00     0.00  -0.00  -0.00     0.00   0.00   0.01
  11   1    -0.00   0.00   0.41     0.00  -0.00  -0.45    -0.00   0.00   0.27
  12   1    -0.00  -0.00  -0.75    -0.00  -0.00  -0.28    -0.00   0.00  -0.02
  13   8    -0.00  -0.00   0.01    -0.00   0.00   0.02    -0.00   0.00   0.00
  14   6     0.00  -0.00   0.01     0.00   0.00   0.00     0.00  -0.00   0.00
  15   1     0.01  -0.01  -0.01    -0.00   0.01   0.00     0.01  -0.01  -0.00
  16   1    -0.00   0.00   0.01     0.00  -0.00  -0.01    -0.00   0.00   0.01
  17   1    -0.01   0.01  -0.01     0.00  -0.01   0.00    -0.01   0.01  -0.00
                     19                     20                     21
                        a                      a                      a 
 Frequencies --   937.8337               984.9096              1054.6803
 Red. masses --    10.7448                11.0933                10.5131
 Frc consts  --     0.0000                 0.0000                 0.0000
 IR Inten    --    63.9503                 5.7284                54.6741
 Raman Activ --     0.0000                 0.0000                 0.0000
 Depolar     --     0.0000                 0.0000                 0.0000
 Atom AN      X      Y      Z        X      Y      Z        X      Y      Z
   1   6    -0.19   0.32  -0.00    -0.36   0.27  -0.00     0.11  -0.19   0.00
   2   6     0.34   0.07  -0.00     0.05   0.07  -0.00     0.11   0.11  -0.00
   3   6     0.36  -0.09   0.00    -0.09  -0.57   0.00    -0.13   0.11  -0.00
   4   6     0.14   0.00  -0.00    -0.11   0.06  -0.00    -0.09  -0.05  -0.00
   5   6    -0.09  -0.23   0.00     0.44   0.36  -0.00     0.05   0.11  -0.00
   6   6     0.05  -0.10   0.00    -0.01  -0.06   0.00    -0.05  -0.04   0.00
   7   1    -0.03  -0.06   0.00     0.11   0.13  -0.00     0.01   0.04  -0.00
   8   1     0.25  -0.04  -0.00    -0.07  -0.00  -0.00    -0.23  -0.00   0.00
   9   8    -0.30   0.18  -0.00     0.11  -0.09   0.00     0.02  -0.04   0.00
  10   1    -0.14   0.05   0.00     0.05  -0.02   0.00     0.13  -0.03   0.00
  11   1    -0.05   0.09  -0.00    -0.07   0.12  -0.00    -0.00  -0.11   0.00
  12   1     0.19  -0.03  -0.00    -0.09  -0.15   0.00    -0.36   0.06   0.00
  13   8     0.04  -0.28   0.00    -0.02  -0.02   0.00     0.54  -0.21   0.00
  14   6    -0.34   0.10  -0.00    -0.01  -0.02   0.00    -0.48   0.20  -0.00
  15   1     0.01   0.03  -0.00     0.03   0.00   0.00     0.01   0.04  -0.01
  16   1    -0.18   0.12  -0.00    -0.04   0.03  -0.00    -0.17   0.11  -0.00
  17   1     0.01   0.03   0.00     0.03   0.00  -0.00     0.01   0.04   0.01
                     22                     23                     24
                        a                      a                      a 
 Frequencies --  1102.9916              1115.0990              1118.2901
 Red. masses --     4.1036                 3.7038                 3.8187
 Frc consts  --     0.0000                 0.0000                 0.0000
 IR Inten    --   156.7995                 2.8386               215.3318
 Raman Activ --     0.0000                 0.0000                 0.0000
 Depolar     --     0.0000                 0.0000                 0.0000
 Atom AN      X      Y      Z        X      Y      Z        X      Y      Z
   1   6     0.22   0.01  -0.00    -0.00   0.00   0.00     0.22   0.01   0.00
   2   6     0.01   0.04   0.00    -0.00  -0.00  -0.00     0.03   0.09   0.00
   3   6    -0.10  -0.16   0.00    -0.00   0.00  -0.00     0.04  -0.06   0.00
   4   6     0.07   0.14   0.00    -0.00   0.00   0.00     0.04  -0.11  -0.00
   5   6    -0.17  -0.03   0.00     0.00  -0.00  -0.00    -0.15   0.11  -0.00
   6   6    -0.02  -0.20   0.00    -0.00   0.00  -0.00     0.02  -0.15   0.00
   7   1    -0.16   0.22  -0.00     0.00  -0.00  -0.00    -0.30   0.55  -0.00
   8   1     0.03  -0.06  -0.00     0.00   0.00   0.00     0.01  -0.04   0.00
   9   8     0.24   0.08  -0.00     0.00   0.00  -0.00    -0.22  -0.03   0.00
  10   1    -0.67   0.15  -0.00    -0.00   0.00   0.00     0.46  -0.10   0.00
  11   1     0.19   0.18  -0.00    -0.00  -0.00  -0.02     0.18   0.18  -0.00
  12   1    -0.31  -0.02   0.00    -0.00   0.00   0.01     0.09  -0.02   0.00
  13   8    -0.02   0.05   0.00     0.00  -0.00  -0.22    -0.08   0.11  -0.00
  14   6    -0.02  -0.10  -0.00    -0.00   0.00   0.42    -0.00  -0.19   0.00
  15   1     0.08   0.01   0.01     0.49  -0.30  -0.17     0.14   0.01   0.02
  16   1    -0.09   0.07   0.00     0.00  -0.00  -0.23    -0.17   0.12  -0.00
  17   1     0.08   0.01  -0.01    -0.49   0.30  -0.17     0.14   0.02  -0.02
                     25                     26                     27
                        a                      a                      a 
 Frequencies --  1146.2647              1149.3726              1193.6688
 Red. masses --     6.9683                 4.5987                 2.8471
 Frc consts  --     0.0000                 0.0000                 0.0000
 IR Inten    --   559.3571                 3.2594                89.2938
 Raman Activ --     0.0000                 0.0000                 0.0000
 Depolar     --     0.0000                 0.0000                 0.0000
 Atom AN      X      Y      Z        X      Y      Z        X      Y      Z
   1   6    -0.03  -0.06   0.00    -0.06  -0.08   0.00    -0.08  -0.07   0.00
   2   6     0.33   0.10  -0.00     0.01   0.07   0.00    -0.12  -0.06   0.00
   3   6     0.07   0.07  -0.00     0.07   0.05  -0.00    -0.19   0.03  -0.00
   4   6     0.24  -0.14  -0.00    -0.04   0.01   0.00    -0.11   0.08  -0.00
   5   6     0.13   0.00  -0.00     0.04  -0.03   0.00     0.05   0.00  -0.00
   6   6     0.01   0.05  -0.00    -0.05   0.02  -0.00     0.11   0.04  -0.00
   7   1     0.00   0.08  -0.00     0.17  -0.35   0.00    -0.11   0.26  -0.00
   8   1    -0.02   0.02   0.00    -0.21   0.02   0.00     0.64  -0.02   0.00
   9   8    -0.21   0.12  -0.00     0.04  -0.01  -0.00     0.12  -0.03  -0.00
  10   1     0.03   0.01   0.00    -0.05   0.01  -0.00    -0.06   0.01  -0.00
  11   1    -0.22  -0.33   0.00    -0.05  -0.07   0.00    -0.32  -0.45   0.00
  12   1    -0.60   0.07  -0.00     0.12   0.01   0.00     0.11  -0.01   0.00
  13   8    -0.38  -0.01  -0.00    -0.02   0.32  -0.00     0.15   0.08  -0.00
  14   6     0.17  -0.10   0.00    -0.06  -0.39   0.00    -0.06  -0.05  -0.00
  15   1    -0.00  -0.02  -0.00     0.32   0.03   0.04     0.08  -0.00  -0.00
  16   1    -0.02   0.03   0.00    -0.43   0.32  -0.00    -0.12   0.10  -0.00
  17   1    -0.00  -0.02   0.00     0.32   0.03  -0.04     0.08  -0.00   0.00
                     28                     29                     30
                        a                      a                      a 
 Frequencies --  1266.2084              1284.0034              1341.7618
 Red. masses --     4.0387                11.2065                11.7474
 Frc consts  --     0.0000                 0.0000                 0.0000
 IR Inten    --    14.9959               155.1809                30.9323
 Raman Activ --     0.0000                 0.0000                 0.0000
 Depolar     --     0.0000                 0.0000                 0.0000
 Atom AN      X      Y      Z        X      Y      Z        X      Y      Z
   1   6    -0.16  -0.19   0.00     0.22   0.10  -0.00     0.14   0.32  -0.00
   2   6    -0.06  -0.25   0.00     0.43   0.15  -0.00     0.10  -0.47   0.00
   3   6     0.18   0.00  -0.00    -0.12   0.06  -0.00    -0.37   0.03   0.00
   4   6     0.04   0.15  -0.00    -0.35   0.44  -0.00     0.26   0.23  -0.00
   5   6    -0.12   0.20  -0.00    -0.16   0.04  -0.00     0.24  -0.36   0.00
   6   6    -0.04   0.04  -0.00    -0.13  -0.31   0.00    -0.37   0.11  -0.00
   7   1     0.12  -0.25   0.00     0.04  -0.20   0.00     0.00   0.05   0.00
   8   1     0.51  -0.02   0.00     0.10  -0.10   0.00    -0.03   0.03   0.00
   9   8    -0.06  -0.06   0.00     0.19  -0.19   0.00    -0.08   0.02   0.00
  10   1     0.20  -0.05   0.00     0.19  -0.07  -0.00     0.12  -0.02  -0.00
  11   1     0.23   0.34  -0.00    -0.01  -0.09  -0.00     0.01   0.05  -0.00
  12   1    -0.42   0.04   0.00     0.03   0.02  -0.00    -0.04   0.00  -0.00
  13   8     0.06   0.12  -0.00    -0.22  -0.12   0.00     0.08   0.08  -0.00
  14   6    -0.05  -0.04   0.00     0.08  -0.01   0.00    -0.05  -0.03   0.00
  15   1     0.06   0.02   0.02    -0.07  -0.01  -0.00     0.06   0.00   0.00
  16   1    -0.00  -0.02  -0.00    -0.02   0.03  -0.00    -0.02   0.00  -0.00
  17   1     0.06   0.02  -0.02    -0.07  -0.01   0.00     0.06   0.00  -0.00
                     31                     32                     33
                        a                      a                      a 
 Frequencies --  1389.2154              1443.4162              1458.8295
 Red. masses --     2.5554                 9.8486                 1.5442
 Frc consts  --     0.0000                 0.0000                 0.0000
 IR Inten    --     1.7007                23.0550                 7.0876
 Raman Activ --     0.0000                 0.0000                 0.0000
 Depolar     --     0.0000                 0.0000                 0.0000
 Atom AN      X      Y      Z        X      Y      Z        X      Y      Z
   1   6     0.03   0.04  -0.00    -0.29  -0.17   0.00     0.00   0.00   0.00
   2   6     0.03   0.05  -0.00     0.43  -0.19   0.00    -0.00  -0.00  -0.00
   3   6     0.04  -0.00  -0.00    -0.03   0.29  -0.00     0.00  -0.00  -0.00
   4   6    -0.04   0.04  -0.00    -0.44  -0.17   0.00     0.00   0.00   0.00
   5   6    -0.03   0.00   0.00     0.20  -0.14   0.00    -0.00  -0.00  -0.00
   6   6     0.03  -0.05   0.00     0.08   0.21  -0.00     0.00  -0.00   0.00
   7   1    -0.01  -0.01   0.00    -0.08   0.24  -0.00    -0.00  -0.00  -0.00
   8   1    -0.03  -0.01   0.00    -0.01   0.07  -0.00    -0.00  -0.00   0.00
   9   8     0.01  -0.02   0.00     0.15  -0.01  -0.00    -0.00  -0.00  -0.00
  10   1     0.01  -0.00  -0.00    -0.12   0.03  -0.00     0.00  -0.00   0.00
  11   1    -0.05  -0.08   0.00     0.12   0.24  -0.00    -0.00  -0.00  -0.02
  12   1    -0.01   0.00  -0.00     0.05   0.09  -0.00    -0.00  -0.00   0.00
  13   8    -0.14   0.02  -0.00    -0.09   0.02  -0.00     0.00  -0.00  -0.03
  14   6    -0.29   0.12  -0.00    -0.04  -0.07   0.00     0.00  -0.00  -0.22
  15   1     0.50  -0.11  -0.14     0.04   0.11   0.08     0.41   0.21   0.09
  16   1     0.38  -0.40   0.00     0.04  -0.05   0.00    -0.00   0.00   0.72
  17   1     0.50  -0.11   0.14     0.04   0.11  -0.08    -0.41  -0.21   0.09
                     34                     35                     36
                        a                      a                      a 
 Frequencies --  1472.3635              1474.3830              1586.6715
 Red. masses --     3.1121                 8.2989                11.5637
 Frc consts  --     0.0000                 0.0000                 0.0000
 IR Inten    --    78.7448               133.7709               142.1750
 Raman Activ --     0.0000                 0.0000                 0.0000
 Depolar     --     0.0000                 0.0000                 0.0000
 Atom AN      X      Y      Z        X      Y      Z        X      Y      Z
   1   6    -0.10   0.04  -0.00     0.09  -0.23   0.00    -0.21  -0.45   0.00
   2   6    -0.02  -0.17   0.00     0.22   0.23  -0.00     0.01   0.43  -0.00
   3   6     0.14   0.05  -0.00    -0.31   0.04   0.00    -0.14  -0.19   0.00
   4   6    -0.16   0.10  -0.00     0.17  -0.35   0.00     0.20   0.45  -0.00
   5   6    -0.01  -0.13   0.00     0.14   0.23  -0.00     0.07  -0.41   0.00
   6   6     0.17   0.04  -0.00    -0.39   0.04  -0.00     0.08   0.21  -0.00
   7   1    -0.06   0.08  -0.00     0.12  -0.08   0.00    -0.06   0.06  -0.00
   8   1    -0.11   0.02   0.00     0.27  -0.01   0.00    -0.01   0.05  -0.00
   9   8     0.04  -0.03   0.00    -0.04   0.08  -0.00    -0.03  -0.03   0.00
  10   1     0.02  -0.01  -0.00    -0.11   0.03   0.00     0.10  -0.02  -0.00
  11   1     0.00   0.06  -0.00     0.16   0.12  -0.00     0.09   0.09  -0.00
  12   1    -0.10   0.03  -0.00     0.24  -0.02  -0.00     0.04  -0.05   0.00
  13   8     0.02   0.08  -0.00    -0.06  -0.04  -0.00    -0.02  -0.05   0.00
  14   6     0.08   0.16  -0.00     0.01   0.09  -0.00    -0.00   0.02  -0.00
  15   1    -0.04  -0.48  -0.33     0.01  -0.21  -0.15     0.00  -0.00  -0.00
  16   1    -0.20   0.21   0.00    -0.05   0.05   0.00     0.02  -0.01   0.00
  17   1    -0.04  -0.48   0.33     0.01  -0.21   0.15     0.00  -0.00   0.00
                     37                     38                     39
                        a                      a                      a 
 Frequencies --  1601.1224              2944.4603              2957.0492
 Red. masses --    11.5846                 1.9564                 1.4408
 Frc consts  --     0.0000                 0.0000                 0.0000
 IR Inten    --   282.7017                46.6665                45.9340
 Raman Activ --     0.0000                 0.0000                 0.0000
 Depolar     --     0.0000                 0.0000                 0.0000
 Atom AN      X      Y      Z        X      Y      Z        X      Y      Z
   1   6    -0.24  -0.01  -0.00     0.00  -0.00  -0.00    -0.00   0.00  -0.00
   2   6     0.26  -0.21   0.00     0.00  -0.00  -0.00    -0.00  -0.00  -0.00
   3   6    -0.49   0.04   0.00     0.00  -0.00   0.00     0.00   0.00  -0.00
   4   6     0.33   0.02  -0.00    -0.00   0.00   0.00    -0.00   0.00   0.00
   5   6    -0.32   0.24  -0.00     0.00   0.00  -0.00     0.00   0.00  -0.00
   6   6     0.52  -0.09   0.00    -0.00   0.00   0.00    -0.00   0.00  -0.00
   7   1    -0.01  -0.10   0.00    -0.00  -0.00  -0.00    -0.00  -0.00   0.00
   8   1    -0.12  -0.01   0.00    -0.00  -0.00  -0.00    -0.00  -0.00   0.00
   9   8    -0.04   0.01   0.00     0.00   0.00  -0.00     0.00  -0.00  -0.00
  10   1     0.01  -0.01   0.00    -0.00  -0.00  -0.00    -0.00  -0.00   0.00
  11   1    -0.03   0.04  -0.00    -0.00   0.00  -0.00     0.01  -0.00   0.00
  12   1     0.11  -0.01  -0.00     0.00   0.00   0.00    -0.00  -0.00   0.00
  13   8     0.01   0.03  -0.00     0.00  -0.00   0.01     0.02  -0.01   0.00
  14   6    -0.02  -0.01   0.00    -0.00   0.00   0.29     0.01  -0.20  -0.00
  15   1     0.01  -0.01  -0.01    -0.05   0.40  -0.54    -0.06   0.37  -0.58
  16   1    -0.01   0.01  -0.00    -0.00  -0.00   0.05     0.01  -0.01  -0.00
  17   1     0.01  -0.01   0.01     0.05  -0.40  -0.54    -0.06   0.37   0.58
                     40                     41                     42
                        a                      a                      a 
 Frequencies --  3033.7998              3088.8562              3090.7139
 Red. masses --     1.7016                 1.7878                 1.8284
 Frc consts  --     0.0000                 0.0000                 0.0000
 IR Inten    --    17.2007                32.2564                70.4800
 Raman Activ --     0.0000                 0.0000                 0.0000
 Depolar     --     0.0000                 0.0000                 0.0000
 Atom AN      X      Y      Z        X      Y      Z        X      Y      Z
   1   6     0.00  -0.00   0.00     0.04  -0.03   0.00    -0.01   0.00  -0.00
   2   6    -0.00   0.00   0.00     0.00  -0.00   0.00     0.01   0.01  -0.00
   3   6    -0.00  -0.00   0.00    -0.00  -0.02   0.00     0.03   0.27  -0.00
   4   6    -0.00   0.00  -0.00    -0.00  -0.00   0.00    -0.01   0.01  -0.00
   5   6     0.00   0.00  -0.00    -0.05  -0.03   0.00     0.01   0.00  -0.00
   6   6    -0.00   0.00  -0.00     0.01   0.25  -0.00     0.00   0.02  -0.00
   7   1    -0.00  -0.00   0.00     0.22   0.11  -0.00    -0.04  -0.02   0.00
   8   1    -0.00  -0.00   0.00    -0.05  -0.91   0.00    -0.00  -0.08   0.00
   9   8     0.00  -0.00   0.00    -0.00   0.00  -0.00     0.00  -0.00   0.00
  10   1    -0.00   0.00  -0.00    -0.00  -0.00   0.00     0.00  -0.00   0.00
  11   1    -0.01   0.00  -0.00    -0.17   0.12  -0.00     0.02  -0.01   0.00
  12   1     0.00   0.00  -0.00     0.01   0.06  -0.00    -0.08  -0.95   0.00
  13   8     0.01   0.00   0.00     0.00   0.00  -0.00    -0.00  -0.00  -0.00
  14   6     0.17   0.18  -0.00    -0.00  -0.00  -0.00     0.00   0.00   0.00
  15   1     0.02   0.04  -0.01    -0.00   0.00  -0.00     0.00  -0.00   0.00
  16   1    -0.68  -0.69   0.00     0.00   0.00  -0.00    -0.00  -0.00   0.00
  17   1     0.02   0.04   0.01    -0.00   0.00   0.00     0.00  -0.00  -0.00
                     43                     44                     45
                        a                      a                      a 
 Frequencies --  3110.2727              3116.8099              3454.7315
 Red. masses --     1.8371                 1.8730                 1.8639
 Frc consts  --     0.0000                 0.0000                 0.0000
 IR Inten    --    75.6922                44.8965               137.9597
 Raman Activ --     0.0000                 0.0000                 0.0000
 Depolar     --     0.0000                 0.0000                 0.0000
 Atom AN      X      Y      Z        X      Y      Z        X      Y      Z
   1   6     0.11  -0.08   0.00     0.19  -0.13   0.00    -0.00   0.00   0.00
   2   6     0.00   0.00  -0.00     0.01   0.01  -0.00     0.00  -0.00  -0.00
   3   6    -0.00  -0.01   0.00     0.00   0.02  -0.00    -0.00   0.00  -0.00
   4   6     0.01  -0.01   0.00    -0.01   0.00  -0.00     0.00  -0.01   0.00
   5   6     0.21   0.10  -0.00    -0.11  -0.05   0.00    -0.00   0.00   0.00
   6   6     0.00   0.03  -0.00    -0.00  -0.09   0.00    -0.00  -0.00   0.00
   7   1    -0.74  -0.36   0.00     0.38   0.18  -0.00     0.01   0.00   0.00
   8   1    -0.01  -0.11   0.00     0.02   0.29  -0.00     0.00   0.00   0.00
   9   8    -0.00  -0.00   0.00     0.00   0.00  -0.00    -0.05  -0.23   0.00
  10   1     0.00   0.01  -0.00    -0.00  -0.00   0.00     0.17   0.96  -0.00
  11   1    -0.39   0.27  -0.00    -0.67   0.46  -0.00     0.00   0.00   0.00
  12   1     0.00   0.03  -0.00    -0.00  -0.06   0.00     0.00  -0.00   0.00
  13   8     0.00  -0.00   0.00    -0.00  -0.00   0.00    -0.00  -0.00  -0.00
  14   6    -0.00  -0.00  -0.00     0.00  -0.00  -0.00     0.00  -0.00   0.00
  15   1    -0.00   0.00  -0.00    -0.00   0.01  -0.01    -0.00   0.00  -0.00
  16   1     0.00   0.00  -0.00     0.00   0.00  -0.00    -0.00   0.00  -0.00
  17   1    -0.00   0.00   0.00    -0.00   0.01   0.01    -0.00   0.00   0.00
