      -----------------------------------------------------------      
     |                   =====================                   |     
     |                           x T B                           |     
     |                   =====================                   |     
     |                         S. Grimme                         |     
     |          Mulliken Center for Theoretical Chemistry        |     
     |                    University of Bonn                     |     
      -----------------------------------------------------------      

   * xtb version 6.4.1 (afa7bdf) compiled by 'ehlert@majestix' on 2021-06-10

   xtb is free software: you can redistribute it and/or modify it under
   the terms of the GNU Lesser General Public License as published by
   the Free Software Foundation, either version 3 of the License, or
   (at your option) any later version.
   
   xtb is distributed in the hope that it will be useful,
   but WITHOUT ANY WARRANTY; without even the implied warranty of
   MERCHANTABILITY or FITNESS FOR A PARTICULAR PURPOSE.  See the
   GNU Lesser General Public License for more details.
   
   Cite this work as:
   * C. Bannwarth, E. Caldeweyher, S. Ehlert, A. Hansen, P. Pracht,
     J. Seibert, S. Spicher, S. Grimme, WIREs Comput. Mol. Sci., 2020, 11,
     e01493. DOI: 10.1002/wcms.1493
   
   for GFN2-xTB:
   * C. Bannwarth, S. Ehlert and S. Grimme., J. Chem. Theory Comput., 2019,
     15, 1652-1671. DOI: 10.1021/acs.jctc.8b01176
   for GFN1-xTB:
   * S. Grimme, C. Bannwarth, P. Shushkov, J. Chem. Theory Comput., 2017,
     13, 1989-2009. DOI: 10.1021/acs.jctc.7b00118
   for GFN0-xTB:
   * P. Pracht, E. Caldeweyher, S. Ehlert, S. Grimme, ChemRxiv, 2019, preprint.
     DOI: 10.26434/chemrxiv.8326202.v1
   for GFN-FF:
   * S. Spicher and S. Grimme, Angew. Chem. Int. Ed., 2020, 59, 15665-15673.
     DOI: 10.1002/anie.202004239
   
   for DFT-D4:
   * E. Caldeweyher, C. Bannwarth and S. Grimme, J. Chem. Phys., 2017,
     147, 034112. DOI: 10.1063/1.4993215
   * E. Caldeweyher, S. Ehlert, A. Hansen, H. Neugebauer, S. Spicher,
     C. Bannwarth and S. Grimme, J. Chem. Phys., 2019, 150, 154122.
     DOI: 10.1063/1.5090222
   * E. Caldeweyher, J.-M. Mewes, S. Ehlert and S. Grimme, Phys. Chem. Chem. Phys.
     2020, 22, 8499-8512. DOI: 10.1039/D0CP00502A
   
   for sTDA-xTB:
   * S. Grimme and C. Bannwarth, J. Chem. Phys., 2016, 145, 054103.
     DOI: 10.1063/1.4959605
   
   in the mass-spec context:
   * V. Asgeirsson, C. Bauer and S. Grimme, Chem. Sci., 2017, 8, 4879.
     DOI: 10.1039/c7sc00601b
   * J. Koopman and S. Grimme, ACS Omega 2019, 4, 12, 15120-15133.
     DOI: 10.1021/acsomega.9b02011
   
   for metadynamics refer to:
   * S. Grimme, J. Chem. Theory Comput., 2019, 155, 2847-2862
     DOI: 10.1021/acs.jctc.9b00143
   
   for SPH calculations refer to:
   * S. Spicher and S. Grimme, J. Chem. Theory Comput., 2021, 17, 1701-1714
     DOI: 10.1021/acs.jctc.0c01306
   
   with help from (in alphabetical order)
   P. Atkinson, C. Bannwarth, F. Bohle, G. Brandenburg, E. Caldeweyher
   M. Checinski, S. Dohm, S. Ehlert, S. Ehrlich, I. Gerasimov, J. Koopman
   C. Lavigne, S. Lehtola, F. März, M. Müller, F. Musil, H. Neugebauer
   J. Pisarek, C. Plett, P. Pracht, J. Seibert, P. Shushkov, S. Spicher
   M. Stahn, M. Steiner, T. Strunk, J. Stückrath, T. Rose, and J. Unsleber
   
 * started run on 2021/11/15 at 09:23:09.100     

           -------------------------------------------------
          |                Calculation Setup                |
           -------------------------------------------------

          program call               : xtb 23_4-methoxyaniline.xyz --gfn2 --chrg 0 --uhf 0 --alpb water -P 1
          coordinate file            : 23_4-methoxyaniline.xyz
          omp threads                :                     1
          number of atoms            :                    18
          number of electrons        :                    48
          charge                     :                     0
          spin                       :                   0.0
          first test random number   :      0.77641364792136

   ID    Z sym.   atoms
    1    6 C      1-6, 15
    2    1 H      7, 8, 10-13, 16-18
    3    7 N      9
    4    8 O      14

           -------------------------------------------------
          |                 G F N 2 - x T B                 |
           -------------------------------------------------

        Reference                      10.1021/acs.jctc.8b01176
      * Hamiltonian:
        H0-scaling (s, p, d)           1.850000    2.230000    2.230000
        zeta-weighting                 0.500000
      * Dispersion:
        s8                             2.700000
        a1                             0.520000
        a2                             5.000000
        s9                             5.000000
      * Repulsion:
        kExp                           1.500000    1.000000
        rExp                           1.000000
      * Coulomb:
        alpha                          2.000000
        third order                    shell-resolved
        anisotropic                    true
        a3                             3.000000
        a5                             4.000000
        cn-shift                       1.200000
        cn-exp                         4.000000
        max-rad                        5.000000

      * Solvation model:               ALPB
        Solvent                        water
        Parameter file                 internal GFN2-xTB/ALPB
        Dielectric constant                8.0200E+01
        Reference state                gsolv [1 M gas/solution]
        Free energy shift                  1.0808E-03 Eh       6.7819E-01 kcal/mol
        Temperature                        2.9815E+02 K
        Density                            1.0000E+00 kg/L
        Solvent mass                       1.8000E+01 g/mol
        Interaction kernel             P16
        Born radius scaling (c1)           1.4744E+00
        Born radii integrator          GBOBC
        Born offset                        0.0000E+00 a0       0.0000E+00 AA
        H-bond correction              true
        Ion screening                  false
        Surface tension                    1.0000E-05 Eh       1.5569E+01 dyn/cm
        Grid points                               230 per atom
q/qsh data taken from xtbrestart
CAMM data taken from xtbrestart

          ...................................................
          :                      SETUP                      :
          :.................................................:
          :  # basis functions                  45          :
          :  # atomic orbitals                  45          :
          :  # shells                           27          :
          :  # electrons                        48          :
          :  max. iterations                   250          :
          :  Hamiltonian                  GFN2-xTB          :
          :  restarted?                       true          :
          :  GBSA solvation                   true          :
          :  PC potential                    false          :
          :  electronic temp.          300.0000000     K    :
          :  accuracy                    1.0000000          :
          :  -> integral cutoff          0.2500000E+02      :
          :  -> integral neglect         0.1000000E-07      :
          :  -> SCF convergence          0.1000000E-05 Eh   :
          :  -> wf. convergence          0.1000000E-03 e    :
          :  Broyden damping             0.4000000          :
          ...................................................

 iter      E             dE          RMSdq      gap      omega  full diag
   1    -26.9353479 -0.269353E+02  0.130E-04    3.52       0.0  T
   2    -26.9353479 -0.751719E-10  0.873E-05    3.52     269.9  T
   3    -26.9353479 -0.247411E-10  0.598E-05    3.52     394.2  T

   *** convergence criteria satisfied after 3 iterations ***

         #    Occupation            Energy/Eh            Energy/eV
      -------------------------------------------------------------
         1        2.0000           -0.7090088             -19.2931
       ...           ...                  ...                  ...
        18        2.0000           -0.4601837             -12.5222
        19        2.0000           -0.4553323             -12.3902
        20        2.0000           -0.4443920             -12.0925
        21        2.0000           -0.4152805             -11.3004
        22        2.0000           -0.4085969             -11.1185
        23        2.0000           -0.3971709             -10.8076
        24        2.0000           -0.3492283              -9.5030 (HOMO)
        25                         -0.2197046              -5.9785 (LUMO)
        26                         -0.1991552              -5.4193
        27                         -0.0849474              -2.3115
        28                          0.0201150               0.5474
        29                          0.0569733               1.5503
       ...                                ...                  ...
        45                          0.6480499              17.6343
      -------------------------------------------------------------
                  HL-Gap            0.1295237 Eh            3.5245 eV
             Fermi-level           -0.2844664 Eh           -7.7407 eV

 SCC (total)                   0 d,  0 h,  0 min,  0.008 sec
 SCC setup                      ...        0 min,  0.000 sec (  6.118%)
 Dispersion                     ...        0 min,  0.000 sec (  1.721%)
 classical contributions        ...        0 min,  0.000 sec (  0.332%)
 integral evaluation            ...        0 min,  0.002 sec ( 20.756%)
 iterations                     ...        0 min,  0.002 sec ( 27.859%)
 molecular gradient             ...        0 min,  0.003 sec ( 40.719%)
 printout                       ...        0 min,  0.000 sec (  2.186%)

         :::::::::::::::::::::::::::::::::::::::::::::::::::::
         ::                     SUMMARY                     ::
         :::::::::::::::::::::::::::::::::::::::::::::::::::::
         :: total energy             -26.554024879890 Eh    ::
         :: total w/o Gsasa/hb       -26.549819974497 Eh    ::
         :: gradient norm              0.020711887913 Eh/a0 ::
         :: HOMO-LUMO gap              3.524519594372 eV    ::
         ::.................................................::
         :: SCC energy               -26.935347938968 Eh    ::
         :: -> isotropic ES            0.031996055126 Eh    ::
         :: -> anisotropic ES          0.005875681969 Eh    ::
         :: -> anisotropic XC          0.012043107185 Eh    ::
         :: -> dispersion             -0.013471908853 Eh    ::
         :: -> Gsolv                  -0.009000378756 Eh    ::
         ::    -> Gelec               -0.004795473364 Eh    ::
         ::    -> Gsasa               -0.001879799343 Eh    ::
         ::    -> Ghb                 -0.003405865747 Eh    ::
         ::    -> Gshift               0.001080759698 Eh    ::
         :: repulsion energy           0.381330024619 Eh    ::
         :: add. restraining           0.000000000000 Eh    ::
         :: total charge              -0.000000000000 e     ::
         :::::::::::::::::::::::::::::::::::::::::::::::::::::

           -------------------------------------------------
          |                Property Printout                |
           -------------------------------------------------

    * Orbital Energies and Occupations

         #    Occupation            Energy/Eh            Energy/eV
      -------------------------------------------------------------
         1        2.0000           -0.7090088             -19.2931
       ...           ...                  ...                  ...
        12        2.0000           -0.5230675             -14.2334
        13        2.0000           -0.5058243             -13.7642
        14        2.0000           -0.4891116             -13.3094
        15        2.0000           -0.4817308             -13.1086
        16        2.0000           -0.4736108             -12.8876
        17        2.0000           -0.4653583             -12.6630
        18        2.0000           -0.4601837             -12.5222
        19        2.0000           -0.4553323             -12.3902
        20        2.0000           -0.4443920             -12.0925
        21        2.0000           -0.4152805             -11.3004
        22        2.0000           -0.4085969             -11.1185
        23        2.0000           -0.3971709             -10.8076
        24        2.0000           -0.3492283              -9.5030 (HOMO)
        25                         -0.2197046              -5.9785 (LUMO)
        26                         -0.1991552              -5.4193
        27                         -0.0849474              -2.3115
        28                          0.0201150               0.5474
        29                          0.0569733               1.5503
        30                          0.1103959               3.0040
        31                          0.1196222               3.2551
        32                          0.1465002               3.9865
        33                          0.1560414               4.2461
        34                          0.1645646               4.4780
        35                          0.1910364               5.1984
       ...                                ...                  ...
        45                          0.6480499              17.6343
      -------------------------------------------------------------
                  HL-Gap            0.1295237 Eh            3.5245 eV
             Fermi-level           -0.2844664 Eh           -7.7407 eV

     #   Z          covCN         q      C6AA      α(0)
     1   6 C        2.857     0.123    25.299     8.244
     2   6 C        2.913    -0.063    29.557     8.915
     3   6 C        2.918    -0.065    29.609     8.923
     4   6 C        2.891     0.067    26.509     8.441
     5   6 C        2.919    -0.068    29.687     8.935
     6   6 C        2.911    -0.073    29.814     8.954
     7   1 H        0.925     0.039     2.466     2.456
     8   1 H        0.925     0.036     2.496     2.471
     9   7 N        2.636    -0.334    28.587     7.941
    10   1 H        0.860     0.191     1.155     1.683
    11   1 H        0.860     0.191     1.155     1.684
    12   1 H        0.925     0.040     2.446     2.446
    13   1 H        0.925     0.039     2.467     2.456
    14   8 O        1.703    -0.321    19.367     5.942
    15   6 C        3.639     0.027    20.476     6.508
    16   1 H        0.924     0.073     2.049     2.238
    17   1 H        0.924     0.049     2.339     2.392
    18   1 H        0.924     0.049     2.337     2.391

 Mol. C6AA /au·bohr⁶  :       3488.113366
 Mol. C8AA /au·bohr⁸  :      81566.294031
 Mol. α(0) /au        :         93.018698


Wiberg/Mayer (AO) data.
largest (>0.10) Wiberg bond orders for each atom

 ---------------------------------------------------------------------------
     #   Z sym  total        # sym  WBO       # sym  WBO       # sym  WBO
 ---------------------------------------------------------------------------
     1   6 C    3.927 --     6 C    1.381     2 C    1.353    14 O    1.030
     2   6 C    3.988 --     3 C    1.475     1 C    1.353    12 H    0.969
                             5 C    0.106
     3   6 C    3.987 --     2 C    1.475     4 C    1.343    13 H    0.968
                             6 C    0.102
     4   6 C    3.976 --     5 C    1.369     3 C    1.343     9 N    1.134
     5   6 C    3.987 --     6 C    1.439     4 C    1.369     8 H    0.969
                             2 C    0.106
     6   6 C    3.987 --     5 C    1.439     1 C    1.381     7 H    0.966
                             3 C    0.102
     7   1 H    0.998 --     6 C    0.966
     8   1 H    0.999 --     5 C    0.969
     9   7 N    3.182 --     4 C    1.134    10 H    0.944    11 H    0.944
    10   1 H    0.963 --     9 N    0.944
    11   1 H    0.963 --     9 N    0.944
    12   1 H    0.998 --     2 C    0.969
    13   1 H    0.998 --     3 C    0.968
    14   8 O    2.172 --     1 C    1.030    15 C    0.976
    15   6 C    3.937 --    16 H    0.979    18 H    0.977    17 H    0.977
                            14 O    0.976
    16   1 H    0.994 --    15 C    0.979
    17   1 H    0.997 --    15 C    0.977
    18   1 H    0.997 --    15 C    0.977
 ---------------------------------------------------------------------------

Topologies differ in total number of bonds
Writing topology from bond orders to xtbtopo.mol

molecular dipole:
                 x           y           z       tot (Debye)
 q only:       -0.583      -0.590       0.283
   full:       -0.517      -0.696       0.535       2.589
molecular quadrupole (traceless):
                xx          xy          yy          xz          yz          zz
 q only:        8.785      -3.604      -3.008      -2.860      -0.284      -5.777
  q+dip:        8.380      -3.980      -0.264      -5.540      -0.545      -8.116
   full:        8.080      -4.282      -1.611      -5.590      -0.557      -6.470


           -------------------------------------------------
          | TOTAL ENERGY              -26.554024879890 Eh   |
          | GRADIENT NORM               0.020711887913 Eh/α |
          | HOMO-LUMO GAP               3.524519594372 eV   |
           -------------------------------------------------

------------------------------------------------------------------------
 * finished run on 2021/11/15 at 09:23:09.131     
------------------------------------------------------------------------
 total:
 * wall-time:     0 d,  0 h,  0 min,  0.031 sec
 *  cpu-time:     0 d,  0 h,  0 min,  0.031 sec
 * ratio c/w:     0.994 speedup
 SCF:
 * wall-time:     0 d,  0 h,  0 min,  0.008 sec
 *  cpu-time:     0 d,  0 h,  0 min,  0.016 sec
 * ratio c/w:     2.004 speedup

