      -----------------------------------------------------------      
     |                   =====================                   |     
     |                           x T B                           |     
     |                   =====================                   |     
     |                         S. Grimme                         |     
     |          Mulliken Center for Theoretical Chemistry        |     
     |                    University of Bonn                     |     
      -----------------------------------------------------------      

   * xtb version 6.4.1 (afa7bdf) compiled by 'ehlert@majestix' on 2021-06-10

   xtb is free software: you can redistribute it and/or modify it under
   the terms of the GNU Lesser General Public License as published by
   the Free Software Foundation, either version 3 of the License, or
   (at your option) any later version.
   
   xtb is distributed in the hope that it will be useful,
   but WITHOUT ANY WARRANTY; without even the implied warranty of
   MERCHANTABILITY or FITNESS FOR A PARTICULAR PURPOSE.  See the
   GNU Lesser General Public License for more details.
   
   Cite this work as:
   * C. Bannwarth, E. Caldeweyher, S. Ehlert, A. Hansen, P. Pracht,
     J. Seibert, S. Spicher, S. Grimme, WIREs Comput. Mol. Sci., 2020, 11,
     e01493. DOI: 10.1002/wcms.1493
   
   for GFN2-xTB:
   * C. Bannwarth, S. Ehlert and S. Grimme., J. Chem. Theory Comput., 2019,
     15, 1652-1671. DOI: 10.1021/acs.jctc.8b01176
   for GFN1-xTB:
   * S. Grimme, C. Bannwarth, P. Shushkov, J. Chem. Theory Comput., 2017,
     13, 1989-2009. DOI: 10.1021/acs.jctc.7b00118
   for GFN0-xTB:
   * P. Pracht, E. Caldeweyher, S. Ehlert, S. Grimme, ChemRxiv, 2019, preprint.
     DOI: 10.26434/chemrxiv.8326202.v1
   for GFN-FF:
   * S. Spicher and S. Grimme, Angew. Chem. Int. Ed., 2020, 59, 15665-15673.
     DOI: 10.1002/anie.202004239
   
   for DFT-D4:
   * E. Caldeweyher, C. Bannwarth and S. Grimme, J. Chem. Phys., 2017,
     147, 034112. DOI: 10.1063/1.4993215
   * E. Caldeweyher, S. Ehlert, A. Hansen, H. Neugebauer, S. Spicher,
     C. Bannwarth and S. Grimme, J. Chem. Phys., 2019, 150, 154122.
     DOI: 10.1063/1.5090222
   * E. Caldeweyher, J.-M. Mewes, S. Ehlert and S. Grimme, Phys. Chem. Chem. Phys.
     2020, 22, 8499-8512. DOI: 10.1039/D0CP00502A
   
   for sTDA-xTB:
   * S. Grimme and C. Bannwarth, J. Chem. Phys., 2016, 145, 054103.
     DOI: 10.1063/1.4959605
   
   in the mass-spec context:
   * V. Asgeirsson, C. Bauer and S. Grimme, Chem. Sci., 2017, 8, 4879.
     DOI: 10.1039/c7sc00601b
   * J. Koopman and S. Grimme, ACS Omega 2019, 4, 12, 15120-15133.
     DOI: 10.1021/acsomega.9b02011
   
   for metadynamics refer to:
   * S. Grimme, J. Chem. Theory Comput., 2019, 155, 2847-2862
     DOI: 10.1021/acs.jctc.9b00143
   
   for SPH calculations refer to:
   * S. Spicher and S. Grimme, J. Chem. Theory Comput., 2021, 17, 1701-1714
     DOI: 10.1021/acs.jctc.0c01306
   
   with help from (in alphabetical order)
   P. Atkinson, C. Bannwarth, F. Bohle, G. Brandenburg, E. Caldeweyher
   M. Checinski, S. Dohm, S. Ehlert, S. Ehrlich, I. Gerasimov, J. Koopman
   C. Lavigne, S. Lehtola, F. März, M. Müller, F. Musil, H. Neugebauer
   J. Pisarek, C. Plett, P. Pracht, J. Seibert, P. Shushkov, S. Spicher
   M. Stahn, M. Steiner, T. Strunk, J. Stückrath, T. Rose, and J. Unsleber
   
 * started run on 2021/11/15 at 09:36:09.223     

           -------------------------------------------------
          |                Calculation Setup                |
           -------------------------------------------------

          program call               : xtb 01_2,6-dimethoxyphenol.xyz --gfn2 --chrg 0 --uhf 0 --alpb water --ohess -P 1
          coordinate file            : 01_2,6-dimethoxyphenol.xyz
          omp threads                :                     1
          number of atoms            :                    21
          number of electrons        :                    60
          charge                     :                     0
          spin                       :                   0.0
          first test random number   :      0.32663736760811

   ID    Z sym.   atoms
    1    6 C      1-6, 12, 18
    2    8 O      7, 11, 17
    3    1 H      8-10, 13-16, 19-21

           -------------------------------------------------
          |                 G F N 2 - x T B                 |
           -------------------------------------------------

        Reference                      10.1021/acs.jctc.8b01176
      * Hamiltonian:
        H0-scaling (s, p, d)           1.850000    2.230000    2.230000
        zeta-weighting                 0.500000
      * Dispersion:
        s8                             2.700000
        a1                             0.520000
        a2                             5.000000
        s9                             5.000000
      * Repulsion:
        kExp                           1.500000    1.000000
        rExp                           1.000000
      * Coulomb:
        alpha                          2.000000
        third order                    shell-resolved
        anisotropic                    true
        a3                             3.000000
        a5                             4.000000
        cn-shift                       1.200000
        cn-exp                         4.000000
        max-rad                        5.000000

      * Solvation model:               ALPB
        Solvent                        water
        Parameter file                 internal GFN2-xTB/ALPB
        Dielectric constant                8.0200E+01
        Reference state                gsolv [1 M gas/solution]
        Free energy shift                  1.0808E-03 Eh       6.7819E-01 kcal/mol
        Temperature                        2.9815E+02 K
        Density                            1.0000E+00 kg/L
        Solvent mass                       1.8000E+01 g/mol
        Interaction kernel             P16
        Born radius scaling (c1)           1.4744E+00
        Born radii integrator          GBOBC
        Born offset                        0.0000E+00 a0       0.0000E+00 AA
        H-bond correction              true
        Ion screening                  false
        Surface tension                    1.0000E-05 Eh       1.5569E+01 dyn/cm
        Grid points                               230 per atom

          ...................................................
          :                      SETUP                      :
          :.................................................:
          :  # basis functions                  54          :
          :  # atomic orbitals                  54          :
          :  # shells                           32          :
          :  # electrons                        60          :
          :  max. iterations                   250          :
          :  Hamiltonian                  GFN2-xTB          :
          :  restarted?                      false          :
          :  GBSA solvation                   true          :
          :  PC potential                    false          :
          :  electronic temp.          300.0000000     K    :
          :  accuracy                    1.0000000          :
          :  -> integral cutoff          0.2500000E+02      :
          :  -> integral neglect         0.1000000E-07      :
          :  -> SCF convergence          0.1000000E-05 Eh   :
          :  -> wf. convergence          0.1000000E-03 e    :
          :  Broyden damping             0.4000000          :
          ...................................................

 iter      E             dE          RMSdq      gap      omega  full diag
   1    -34.7917751 -0.347918E+02  0.497E+00    4.30       0.0  T
   2    -34.8231889 -0.314137E-01  0.263E+00    4.08       1.0  T
   3    -34.8207720  0.241688E-02  0.914E-01    4.10       1.0  T
   4    -34.8253734 -0.460143E-02  0.297E-01    4.07       1.0  T
   5    -34.8259799 -0.606471E-03  0.101E-01    4.09       1.0  T
   6    -34.8259799 -0.531056E-08  0.487E-02    4.09       1.0  T
   7    -34.8259933 -0.133380E-04  0.132E-02    4.09       1.7  T
   8    -34.8259940 -0.702652E-06  0.510E-03    4.09       4.3  T
   9    -34.8259940 -0.503438E-07  0.172E-03    4.09      12.7  T
  10    -34.8259940 -0.671054E-08  0.636E-04    4.09      34.3  T
  11    -34.8259940 -0.363040E-08  0.261E-04    4.09      83.7  T

   *** convergence criteria satisfied after 11 iterations ***

         #    Occupation            Energy/Eh            Energy/eV
      -------------------------------------------------------------
         1        2.0000           -0.7227031             -19.6658
       ...           ...                  ...                  ...
        24        2.0000           -0.4622378             -12.5781
        25        2.0000           -0.4593900             -12.5006
        26        2.0000           -0.4393175             -11.9544
        27        2.0000           -0.4351867             -11.8420
        28        2.0000           -0.4326900             -11.7741
        29        2.0000           -0.3793432             -10.3225
        30        2.0000           -0.3667720              -9.9804 (HOMO)
        31                         -0.2164539              -5.8900 (LUMO)
        32                         -0.2129900              -5.7958
        33                         -0.0894920              -2.4352
        34                         -0.0100634              -0.2738
        35                          0.0369148               1.0045
       ...                                ...                  ...
        54                          0.6394831              17.4012
      -------------------------------------------------------------
                  HL-Gap            0.1503180 Eh            4.0904 eV
             Fermi-level           -0.2916130 Eh           -7.9352 eV

 SCC (total)                   0 d,  0 h,  0 min,  0.014 sec
 SCC setup                      ...        0 min,  0.001 sec (  4.208%)
 Dispersion                     ...        0 min,  0.000 sec (  1.327%)
 classical contributions        ...        0 min,  0.000 sec (  0.232%)
 integral evaluation            ...        0 min,  0.002 sec ( 15.849%)
 iterations                     ...        0 min,  0.006 sec ( 46.635%)
 molecular gradient             ...        0 min,  0.004 sec ( 30.301%)
 printout                       ...        0 min,  0.000 sec (  1.239%)

         :::::::::::::::::::::::::::::::::::::::::::::::::::::
         ::                     SUMMARY                     ::
         :::::::::::::::::::::::::::::::::::::::::::::::::::::
         :: total energy             -34.422370570616 Eh    ::
         :: total w/o Gsasa/hb       -34.418254689115 Eh    ::
         :: gradient norm              0.023265460022 Eh/a0 ::
         :: HOMO-LUMO gap              4.090362245236 eV    ::
         ::.................................................::
         :: SCC energy               -34.825994014777 Eh    ::
         :: -> isotropic ES            0.063099892175 Eh    ::
         :: -> anisotropic ES          0.003451784973 Eh    ::
         :: -> anisotropic XC          0.005668015549 Eh    ::
         :: -> dispersion             -0.016507156631 Eh    ::
         :: -> Gsolv                  -0.013381171230 Eh    ::
         ::    -> Gelec               -0.009265289729 Eh    ::
         ::    -> Gsasa                0.001020859920 Eh    ::
         ::    -> Ghb                 -0.006217501118 Eh    ::
         ::    -> Gshift               0.001080759698 Eh    ::
         :: repulsion energy           0.403613237286 Eh    ::
         :: add. restraining           0.000000000000 Eh    ::
         :: total charge              -0.000000000000 e     ::
         :::::::::::::::::::::::::::::::::::::::::::::::::::::

      ----------------------------------------------------------- 
     |                   =====================                   |
     |                        A N C O P T                        |
     |                   =====================                   |
     |               Approximate Normal Coordinate               |
     |                Rational Function Optimizer                |
      ----------------------------------------------------------- 

          ...................................................
          :                      SETUP                      :
          :.................................................:
          :   optimization level            normal          :
          :   max. optcycles                   200          :
          :   ANC micro-cycles                  20          :
          :   degrees of freedom                57          :
          :.................................................:
          :   RF solver                   davidson          :
          :   write xtbopt.log                true          :
          :   linear?                        false          :
          :   energy convergence         0.5000000E-05 Eh   :
          :   grad. convergence          0.1000000E-02 Eh/α :
          :   maximium RF displ.         1.0000000          :
          :   Hlow (freq-cutoff)         0.1000000E-01      :
          :   Hmax (freq-cutoff)         5.0000000          :
          :   S6 in model hess.         20.0000000          :
          ...................................................

generating ANC from model Hessian ...
Using Lindh-Hessian (1995)
 Shifting diagonal of input Hessian by   8.846666383195811E-003
 Lowest  eigenvalues of input Hessian
    0.000000    0.000000    0.000000    0.000000    0.000000    0.000000
    0.010000    0.012938    0.013948    0.014389    0.014659    0.018859
    0.019286    0.027056    0.030239    0.033395    0.037676    0.041744
 Highest eigenvalues
    1.611618    1.747924    1.815029    1.890989    2.094092    2.122833
 

........................................................................
.............................. CYCLE    1 ..............................
........................................................................
   1    -34.8259940 -0.348260E+02  0.820E-05    4.09       0.0  T
   2    -34.8259940 -0.136211E-10  0.529E-05    4.09     412.3  T
   3    -34.8259940 -0.475353E-11  0.251E-05    4.09     870.6  T
     SCC iter.                  ...        0 min,  0.003 sec
     gradient                   ...        0 min,  0.007 sec
 * total energy  :   -34.4223706 Eh     change       -0.1986891E-09 Eh
   gradient norm :     0.0232671 Eh/α   predicted     0.0000000E+00 (-100.00%)
   displ. norm   :     0.0730229 α      lambda       -0.1221633E-02
   maximum displ.:     0.0388186 α      in ANC's #34, #25, #31, ...

........................................................................
.............................. CYCLE    2 ..............................
........................................................................
   1    -34.8376462 -0.348376E+02  0.930E-02    4.13       0.0  T
   2    -34.8376505 -0.432025E-05  0.561E-02    4.13       1.0  T
   3    -34.8376469  0.357268E-05  0.228E-02    4.13       1.0  T
   4    -34.8376524 -0.543289E-05  0.313E-03    4.13       7.0  T
   5    -34.8376524 -0.306010E-07  0.197E-03    4.13      11.1  T
   6    -34.8376524 -0.140500E-07  0.998E-04    4.13      21.9  T
   7    -34.8376524 -0.343655E-08  0.311E-04    4.13      70.2  T
     SCC iter.                  ...        0 min,  0.004 sec
     gradient                   ...        0 min,  0.004 sec
 * total energy  :   -34.4231201 Eh     change       -0.7495544E-03 Eh
   gradient norm :     0.0076141 Eh/α   predicted    -0.6158733E-03 ( -17.83%)
   displ. norm   :     0.0250887 α      lambda       -0.1083243E-03
   maximum displ.:     0.0101435 α      in ANC's #15, #34, #7, ...

........................................................................
.............................. CYCLE    3 ..............................
........................................................................
   1    -34.8406142 -0.348406E+02  0.311E-02    4.13       0.0  T
   2    -34.8406159 -0.166875E-05  0.182E-02    4.13       1.2  T
   3    -34.8406161 -0.220983E-06  0.110E-02    4.13       2.0  T
   4    -34.8406167 -0.571243E-06  0.154E-03    4.13      14.1  T
   5    -34.8406167 -0.111234E-07  0.936E-04    4.13      23.3  T
   6    -34.8406167 -0.319584E-08  0.481E-04    4.13      45.4  T
     SCC iter.                  ...        0 min,  0.004 sec
     gradient                   ...        0 min,  0.004 sec
 * total energy  :   -34.4231818 Eh     change       -0.6163681E-04 Eh
   gradient norm :     0.0029160 Eh/α   predicted    -0.5428032E-04 ( -11.94%)
   displ. norm   :     0.0098300 α      lambda       -0.1112610E-04
   maximum displ.:     0.0055592 α      in ANC's #7, #11, #5, ...

........................................................................
.............................. CYCLE    4 ..............................
........................................................................
   1    -34.8405873 -0.348406E+02  0.964E-03    4.13       0.0  T
   2    -34.8405876 -0.367862E-06  0.563E-03    4.13       3.9  T
   3    -34.8405878 -0.142654E-06  0.346E-03    4.13       6.3  T
   4    -34.8405878 -0.257786E-07  0.624E-04    4.13      35.0  T
   5    -34.8405878 -0.232929E-08  0.329E-04    4.13      66.3  T
     SCC iter.                  ...        0 min,  0.003 sec
     gradient                   ...        0 min,  0.004 sec
 * total energy  :   -34.4231897 Eh     change       -0.7938712E-05 Eh
   gradient norm :     0.0013530 Eh/α   predicted    -0.5649013E-05 ( -28.84%)
   displ. norm   :     0.0136317 α      lambda       -0.4024570E-05
   maximum displ.:     0.0071936 α      in ANC's #7, #11, #5, ...

........................................................................
.............................. CYCLE    5 ..............................
........................................................................
   1    -34.8400575 -0.348401E+02  0.119E-02    4.13       0.0  T
   2    -34.8400579 -0.433702E-06  0.703E-03    4.13       3.1  T
   3    -34.8400581 -0.148632E-06  0.436E-03    4.13       5.0  T
   4    -34.8400581 -0.494613E-07  0.684E-04    4.13      31.9  T
   5    -34.8400581 -0.281187E-08  0.339E-04    4.13      64.4  T
     SCC iter.                  ...        0 min,  0.003 sec
     gradient                   ...        0 min,  0.004 sec
 * total energy  :   -34.4231920 Eh     change       -0.2341486E-05 Eh
   gradient norm :     0.0006512 Eh/α   predicted    -0.2351623E-05 (   0.43%)
   displ. norm   :     0.0027317 α      lambda       -0.5736002E-06
   maximum displ.:     0.0014583 α      in ANC's #7, #10, #15, ...

   *** GEOMETRY OPTIMIZATION CONVERGED AFTER 5 ITERATIONS ***

------------------------------------------------------------------------
 total energy gain   :        -0.0008215 Eh       -0.5155 kcal/mol
 total RMSD          :         0.0218792 a0        0.0116 Å
 total power (kW/mol):        -0.4313547 (step)  -21.9321 (real)
------------------------------------------------------------------------

 ANCopt (total)                0 d,  0 h,  0 min,  0.098 sec
 optimizer setup                ...        0 min,  0.001 sec (  1.221%)
 model hessian                  ...        0 min,  0.029 sec ( 29.959%)
 ANC generation                 ...        0 min,  0.004 sec (  4.373%)
 coordinate transformation      ...        0 min,  0.008 sec (  8.020%)
 single point calculation       ...        0 min,  0.054 sec ( 54.573%)
 optimization log               ...        0 min,  0.001 sec (  1.190%)
 hessian update                 ...        0 min,  0.000 sec (  0.032%)
 rational function              ...        0 min,  0.000 sec (  0.309%)

================
 final structure:
================
21
 xtb: 6.4.1 (afa7bdf)
C        -0.03025329611210    2.08841661395863    0.00000000000000
C         1.18331977426475    1.42515081006617    0.00000000000003
C         1.19933063570620    0.03829252749027    0.00000000000001
C        -0.00145814790913   -0.67882910768323   -0.00000000000002
C        -1.22387126658447    0.00347044481695   -0.00000000000007
C        -1.22586945085017    1.39322992538301   -0.00000000000005
O        -0.00129536584242   -2.04400790189321   -0.00000000000002
H         0.92099234716972   -2.34971446658899    0.00000000000004
H         2.10109769757519    1.98843042367468    0.00000000000004
H        -0.04479489567522    3.16648109238566    0.00000000000004
O         2.33037392754360   -0.74667730691704   -0.00000000000000
C         3.59008383862373   -0.10574091064031    0.00000000000000
H         3.71954623953348    0.50872145885491    0.89434804062057
H         4.32006022327405   -0.91206231777514   -0.00000000000003
H         3.71954623953347    0.50872145885493   -0.89434804062055
H        -2.15478131731111    1.93784088500503   -0.00000000000004
O        -2.33912114385035   -0.78715996934929   -0.00000000000003
C        -3.60507175805361   -0.15737929153060    0.00000000000000
H        -4.32605343101316   -0.97161026377270    0.00000000000010
H        -3.74223092501117    0.45578594783016    0.89474873687188
H        -3.74223092501126    0.45578594783010   -0.89474873687190
 
 Bond Distances (Angstroems)
 ---------------------------
C1-C2=1.3830         C1-C6=1.3830         C1-H10=1.0782        C2-C1=1.3830         C2-C3=1.3870         C2-H9=1.0768         
C3-C2=1.3870         C3-C4=1.3986         C3-O11=1.3767        C4-C3=1.3986         C4-C5=1.3999         C4-O7=1.3652         
C5-C4=1.3999         C5-C6=1.3898         C5-O17=1.3671        C6-C1=1.3830         C6-C5=1.3898         C6-H16=1.0768        
O7-C4=1.3652         O7-H8=0.9716         H8-O7=0.9716         H9-C2=1.0768         H10-C1=1.0782        O11-C3=1.3767        
O11-C12=1.4134       C12-O11=1.4134       C12-H13=1.0928       C12-H14=1.0877       C12-H15=1.0928       H13-C12=1.0928       
H14-C12=1.0877       H15-C12=1.0928       H16-C6=1.0768        O17-C5=1.3671        O17-C18=1.4140       C18-O17=1.4140       
C18-H19=1.0876       C18-H20=1.0933       C18-H21=1.0933       H19-C18=1.0876       H20-C18=1.0933       H21-C18=1.0933       
 C  H  Rav=1.0866 sigma=0.0069  Rmin=1.0768  Rmax=1.0933     9
 C  C  Rav=1.3902 sigma=0.0068  Rmin=1.3830  Rmax=1.3999     6
 O  H  Rav=0.9716 sigma=0.0000  Rmin=0.9716  Rmax=0.9716     1
 O  C  Rav=1.3873 sigma=0.0219  Rmin=1.3652  Rmax=1.4140     5
 
 selected bond angles (degree)
 --------------------
C6-C1-C2=121.17                H10-C1-C2=119.43               H10-C1-C6=119.40               C3-C2-C1=119.32                
H9-C2-C1=119.80                H9-C2-C3=120.88                C4-C3-C2=120.18                O11-C3-C2=125.42               
O11-C3-C4=114.39               C5-C4-C3=119.99                O7-C4-C3=120.84                O7-C4-C5=119.18                
C6-C5-C4=119.25                O17-C5-C4=115.50               O17-C5-C6=125.25               C5-C6-C1=120.09                
H16-C6-C1=119.44               H16-C6-C5=120.47               H8-O7-C4=108.35                
 
 selected dihedral angles (degree)
 ---------------------------------
C3-C2-C1-C6=  0.00            C3-C2-C1-H10=180.00           H9-C2-C1-C6=180.00            H9-C2-C1-H10=  0.00           
C4-C3-C2-C1=  0.00            C4-C3-C2-H9=180.00            O11-C3-C2-C1=180.00           O11-C3-C2-H9=  0.00           
C5-C4-C3-C2=  0.00            C5-C4-C3-O11=180.00           O7-C4-C3-C2=180.00            O7-C4-C3-O11=  0.00           
C6-C5-C4-C3=  0.00            C6-C5-C4-O7=180.00            O17-C5-C4-C3=180.00           O17-C5-C4-O7=  0.00           
C5-C6-C1-C2=  0.00            C5-C6-C1-H10=180.00           H16-C6-C1-C2=180.00           H16-C6-C1-H10=  0.00          
C1-C6-C5-C4=  0.00            C1-C6-C5-O17=180.00           H16-C6-C5-C4=180.00           H16-C6-C5-O17=  0.00          
H8-O7-C4-C3=  0.00            H8-O7-C4-C5=180.00            
           -------------------------------------------------
          |                Final Singlepoint                |
           -------------------------------------------------

          ...................................................
          :                      SETUP                      :
          :.................................................:
          :  # basis functions                  54          :
          :  # atomic orbitals                  54          :
          :  # shells                           32          :
          :  # electrons                        60          :
          :  max. iterations                   250          :
          :  Hamiltonian                  GFN2-xTB          :
          :  restarted?                      false          :
          :  GBSA solvation                   true          :
          :  PC potential                    false          :
          :  electronic temp.          300.0000000     K    :
          :  accuracy                    1.0000000          :
          :  -> integral cutoff          0.2500000E+02      :
          :  -> integral neglect         0.1000000E-07      :
          :  -> SCF convergence          0.1000000E-05 Eh   :
          :  -> wf. convergence          0.1000000E-03 e    :
          :  Broyden damping             0.4000000          :
          ...................................................

 iter      E             dE          RMSdq      gap      omega  full diag
   1    -34.8400581 -0.348401E+02  0.169E-04    4.13       0.0  T
   2    -34.8400581 -0.397264E-10  0.114E-04    4.13     192.1  T
   3    -34.8400581 -0.151701E-10  0.457E-05    4.13     477.0  T

   *** convergence criteria satisfied after 3 iterations ***

         #    Occupation            Energy/Eh            Energy/eV
      -------------------------------------------------------------
         1        2.0000           -0.7223125             -19.6551
       ...           ...                  ...                  ...
        24        2.0000           -0.4620097             -12.5719
        25        2.0000           -0.4584201             -12.4742
        26        2.0000           -0.4386947             -11.9375
        27        2.0000           -0.4358640             -11.8605
        28        2.0000           -0.4322906             -11.7632
        29        2.0000           -0.3802233             -10.3464
        30        2.0000           -0.3664455              -9.9715 (HOMO)
        31                         -0.2147779              -5.8444 (LUMO)
        32                         -0.2115653              -5.7570
        33                         -0.0859217              -2.3380
        34                         -0.0048415              -0.1317
        35                          0.0463632               1.2616
       ...                                ...                  ...
        54                          0.6590350              17.9333
      -------------------------------------------------------------
                  HL-Gap            0.1516676 Eh            4.1271 eV
             Fermi-level           -0.2906117 Eh           -7.9079 eV

 SCC (total)                   0 d,  0 h,  0 min,  0.009 sec
 SCC setup                      ...        0 min,  0.000 sec (  4.346%)
 Dispersion                     ...        0 min,  0.000 sec (  0.604%)
 classical contributions        ...        0 min,  0.000 sec (  0.200%)
 integral evaluation            ...        0 min,  0.002 sec ( 21.189%)
 iterations                     ...        0 min,  0.002 sec ( 25.007%)
 molecular gradient             ...        0 min,  0.004 sec ( 46.722%)
 printout                       ...        0 min,  0.000 sec (  1.659%)

         :::::::::::::::::::::::::::::::::::::::::::::::::::::
         ::                     SUMMARY                     ::
         :::::::::::::::::::::::::::::::::::::::::::::::::::::
         :: total energy             -34.423192042839 Eh    ::
         :: total w/o Gsasa/hb       -34.418962754369 Eh    ::
         :: gradient norm              0.000645008088 Eh/a0 ::
         :: HOMO-LUMO gap              4.127084907887 eV    ::
         ::.................................................::
         :: SCC energy               -34.840058127150 Eh    ::
         :: -> isotropic ES            0.062665176006 Eh    ::
         :: -> anisotropic ES          0.002934430093 Eh    ::
         :: -> anisotropic XC          0.004941319564 Eh    ::
         :: -> dispersion             -0.016549349741 Eh    ::
         :: -> Gsolv                  -0.013217139947 Eh    ::
         ::    -> Gelec               -0.008987851476 Eh    ::
         ::    -> Gsasa                0.000990935006 Eh    ::
         ::    -> Ghb                 -0.006300983175 Eh    ::
         ::    -> Gshift               0.001080759698 Eh    ::
         :: repulsion energy           0.416856205019 Eh    ::
         :: add. restraining           0.000000000000 Eh    ::
         :: total charge               0.000000000000 e     ::
         :::::::::::::::::::::::::::::::::::::::::::::::::::::

           ------------------------------------------------- 
          |                Numerical Hessian                |
           ------------------------------------------------- 
step length          :   0.00500
SCC accuracy         :   0.30000
Hessian scale factor :   1.00000
frozen atoms in %    :   0.00000    0
RMS gradient         :   0.00064
estimated CPU  time      0.02 min
estimated wall time      0.02 min

writing file <hessian>.

 projected vibrational frequencies (cm⁻¹)
eigval :       -0.00    -0.00    -0.00     0.00     0.00     0.00
eigval :       54.49    91.38   148.18   181.63   183.31   231.16
eigval :      232.58   270.08   321.84   327.69   353.70   379.27
eigval :      467.58   503.95   511.65   565.11   595.08   656.88
eigval :      715.23   782.96   812.32   851.93   894.54   897.33
eigval :     1039.13  1082.59  1113.00  1114.31  1116.70  1138.07
eigval :     1145.04  1154.10  1182.79  1203.23  1242.75  1309.27
eigval :     1354.25  1387.60  1391.95  1456.00  1458.60  1458.64
eigval :     1469.59  1471.57  1479.57  1575.90  1589.79  2939.18
eigval :     2950.07  2952.17  2962.43  3034.18  3035.18  3098.09
eigval :     3119.31  3124.91  3420.69
           -------------------------------------------------
          |                Property Printout                |
           -------------------------------------------------

    * Orbital Energies and Occupations

         #    Occupation            Energy/Eh            Energy/eV
      -------------------------------------------------------------
         1        2.0000           -0.7223128             -19.6551
       ...           ...                  ...                  ...
        18        2.0000           -0.5158959             -14.0382
        19        2.0000           -0.5127457             -13.9525
        20        2.0000           -0.4961042             -13.4997
        21        2.0000           -0.4764304             -12.9643
        22        2.0000           -0.4708506             -12.8125
        23        2.0000           -0.4685148             -12.7489
        24        2.0000           -0.4620098             -12.5719
        25        2.0000           -0.4584203             -12.4743
        26        2.0000           -0.4386948             -11.9375
        27        2.0000           -0.4358640             -11.8605
        28        2.0000           -0.4322906             -11.7632
        29        2.0000           -0.3802232             -10.3464
        30        2.0000           -0.3664458              -9.9715 (HOMO)
        31                         -0.2147781              -5.8444 (LUMO)
        32                         -0.2115652              -5.7570
        33                         -0.0859218              -2.3381
        34                         -0.0048417              -0.1317
        35                          0.0463631               1.2616
        36                          0.0778396               2.1181
        37                          0.1076567               2.9295
        38                          0.1224787               3.3328
        39                          0.1272254               3.4620
        40                          0.1339319               3.6445
        41                          0.1709496               4.6518
       ...                                ...                  ...
        54                          0.6590350              17.9333
      -------------------------------------------------------------
                  HL-Gap            0.1516677 Eh            4.1271 eV
             Fermi-level           -0.2906119 Eh           -7.9080 eV

     #   Z          covCN         q      C6AA      α(0)
     1   6 C        2.921    -0.053    29.325     8.880
     2   6 C        2.915    -0.085    30.123     9.000
     3   6 C        2.862     0.101    25.750     8.318
     4   6 C        2.846     0.097    25.839     8.331
     5   6 C        2.862     0.116    25.438     8.267
     6   6 C        2.917    -0.086    30.158     9.005
     7   8 O        1.658    -0.447    21.780     6.300
     8   1 H        0.804     0.374     0.535     1.149
     9   1 H        0.926     0.055     2.257     2.349
    10   1 H        0.926     0.054     2.276     2.359
    11   8 O        1.704    -0.309    19.158     5.910
    12   6 C        3.641     0.021    20.580     6.523
    13   1 H        0.924     0.055     2.258     2.350
    14   1 H        0.925     0.082     1.963     2.191
    15   1 H        0.924     0.055     2.258     2.350
    16   1 H        0.926     0.055     2.260     2.351
    17   8 O        1.704    -0.297    18.937     5.875
    18   6 C        3.642     0.021    20.572     6.521
    19   1 H        0.925     0.081     1.966     2.193
    20   1 H        0.924     0.055     2.257     2.349
    21   1 H        0.924     0.055     2.257     2.349

 Mol. C6AA /au·bohr⁶  :       4615.606356
 Mol. C8AA /au·bohr⁸  :     106884.272645
 Mol. α(0) /au        :        104.920877


Wiberg/Mayer (AO) data.
largest (>0.10) Wiberg bond orders for each atom

 ---------------------------------------------------------------------------
     #   Z sym  total        # sym  WBO       # sym  WBO       # sym  WBO
 ---------------------------------------------------------------------------
     1   6 C    3.990 --     6 C    1.436     2 C    1.432    10 H    0.970
     2   6 C    3.983 --     1 C    1.432     3 C    1.377     9 H    0.964
     3   6 C    3.931 --     2 C    1.377     4 C    1.322    11 O    1.034
     4   6 C    3.940 --     3 C    1.322     5 C    1.315     7 O    1.069
     5   6 C    3.934 --     6 C    1.371     4 C    1.315    17 O    1.053
     6   6 C    3.982 --     1 C    1.436     5 C    1.371    16 H    0.964
     7   8 O    2.075 --     4 C    1.069     8 H    0.837
     8   1 H    0.860 --     7 O    0.837
     9   1 H    0.997 --     2 C    0.964
    10   1 H    0.997 --     1 C    0.970
    11   8 O    2.189 --     3 C    1.034    12 C    0.970
    12   6 C    3.929 --    13 H    0.977    15 H    0.977    14 H    0.977
                            11 O    0.970
    13   1 H    0.997 --    12 C    0.977
    14   1 H    0.993 --    12 C    0.977
    15   1 H    0.997 --    12 C    0.977
    16   1 H    0.997 --     6 C    0.964
    17   8 O    2.207 --     5 C    1.053    18 C    0.972
    18   6 C    3.930 --    19 H    0.977    21 H    0.976    20 H    0.976
                            17 O    0.972
    19   1 H    0.993 --    18 C    0.977
    20   1 H    0.997 --    18 C    0.976
    21   1 H    0.997 --    18 C    0.976
 ---------------------------------------------------------------------------

Topologies differ in total number of bonds
Writing topology from bond orders to xtbtopo.mol

molecular dipole:
                 x           y           z       tot (Debye)
 q only:        0.562       0.789      -0.000
   full:        0.726       0.971      -0.000       3.081
molecular quadrupole (traceless):
                xx          xy          yy          xz          yz          zz
 q only:       13.954      -4.121      -6.182      -0.000       0.000      -7.773
  q+dip:       13.759      -5.064      -6.165      -0.000       0.000      -7.594
   full:       14.052      -5.143      -7.292      -0.000       0.000      -6.760

           -------------------------------------------------
          |                Geometry Summary                 |
           -------------------------------------------------

      molecular mass/u    :      154.1635095
   center of mass at/Å    :       -0.0048657      -0.0278577       0.0000001
  moments of inertia/u·Å² :        0.2210279E+03   0.6624843E+03   0.8770597E+03
rotational constants/cm⁻¹ :        0.7626926E-01   0.2544608E-01   0.1922062E-01

 * 21 selected distances

     #   Z          #   Z                                           value/Å
     1   6 C        2   6 C                                       1.3829972
     2   6 C        3   6 C                                       1.3869507
     3   6 C        4   6 C                                       1.3986269
     4   6 C        5   6 C                                       1.3999380
     1   6 C        6   6 C                                       1.3830338
     5   6 C        6   6 C                                       1.3897609
     4   6 C        7   8 O                                       1.3651788
     7   8 O        8   1 H                                       0.9716332 (min)
     2   6 C        9   1 H                                       1.0768474
     1   6 C       10   1 H                                       1.0781625
     3   6 C       11   8 O                                       1.3767485
    11   8 O       12   6 C                                       1.4133890
    12   6 C       13   1 H                                       1.0927868
    12   6 C       14   1 H                                       1.0876671
    12   6 C       15   1 H                                       1.0927868
     6   6 C       16   1 H                                       1.0767908
     5   6 C       17   8 O                                       1.3670694
    17   8 O       18   6 C                                       1.4139500 (max)
    18   6 C       19   1 H                                       1.0875600
    18   6 C       20   1 H                                       1.0933250
    18   6 C       21   1 H                                       1.0933250

 * 4 distinct bonds (by element types)

   Z      Z             #   av. dist./Å        max./Å        min./Å
   1 H    6 C           9     1.0865835     1.0933250     1.0767908
   6 C    6 C           6     1.3902179     1.3999380     1.3829972
   1 H    8 O           1     0.9716332     0.9716332     0.9716332
   6 C    8 O           5     1.3872672     1.4139500     1.3651788

           -------------------------------------------------
          |               Frequency Printout                |
           -------------------------------------------------
 projected vibrational frequencies (cm⁻¹)
eigval :       -0.00    -0.00    -0.00     0.00     0.00     0.00
eigval :       54.49    91.38   148.18   181.63   183.31   231.16
eigval :      232.58   270.08   321.84   327.69   353.70   379.27
eigval :      467.58   503.95   511.65   565.11   595.08   656.88
eigval :      715.23   782.96   812.32   851.93   894.54   897.33
eigval :     1039.13  1082.59  1113.00  1114.31  1116.70  1138.07
eigval :     1145.04  1154.10  1182.79  1203.23  1242.75  1309.27
eigval :     1354.25  1387.60  1391.95  1456.00  1458.60  1458.64
eigval :     1469.59  1471.57  1479.57  1575.90  1589.79  2939.18
eigval :     2950.07  2952.17  2962.43  3034.18  3035.18  3098.09
eigval :     3119.31  3124.91  3420.69
 reduced masses (amu)
   1: 11.34   2: 12.21   3: 12.47   4: 11.47   5: 13.53   6: 11.43   7:  9.29   8: 11.17
   9: 13.94  10:  5.78  11: 10.27  12: 12.01  13:  1.99  14:  6.20  15: 10.94  16: 10.96
  17: 11.50  18:  2.75  19: 13.12  20: 12.53  21: 10.37  22: 11.66  23: 10.59  24: 11.87
  25: 12.36  26:  3.09  27: 11.94  28:  3.76  29: 10.90  30:  3.16  31: 12.59  32: 11.96
  33:  7.41  34:  3.68  35:  3.68  36:  5.96  37:  7.27  38:  5.35  39:  7.20  40:  3.26
  41:  4.77  42: 10.15  43: 11.36  44:  2.51  45:  2.55  46:  1.54  47:  9.94  48:  1.55
  49:  3.22  50:  2.07  51:  9.10  52: 11.58  53: 11.60  54:  1.96  55:  1.96  56:  1.44
  57:  1.44  58:  1.70  59:  1.71  60:  1.79  61:  1.83  62:  1.87  63:  1.86
 IR intensities (km·mol⁻¹)
   1:  0.04   2:  0.15   3:  0.35   4:  0.60   5:  0.35   6:  0.50   7:  9.92   8:  0.02
   9:  6.70  10:  0.07  11:  4.31  12:  4.90  13:  0.83  14:  0.05  15:  0.00  16:  3.93
  17:  0.47  18:216.88  19:  2.62  20: 13.16  21:  0.08  22:  0.01  23: 20.04  24:  1.78
  25: 47.54  26: 53.66  27: 44.01  28:  0.01  29: 92.06  30:  0.24  31: 31.56  32:407.36
  33: 38.70  34:  2.83  35:  2.56  36:156.98  37: 19.57  38:464.65  39: 10.58  40:165.41
  41: 87.89  42:287.76  43: 38.53  44:  1.51  45:  0.48  46:  7.61  47:324.59  48:  7.05
  49: 88.33  50: 17.07  51:208.91  52:  2.69  53:133.43  54: 47.48  55: 44.47  56: 50.28
  57: 45.17  58: 17.28  59: 15.36  60: 30.32  61: 49.77  62: 38.38  63:203.52
 Raman intensities (amu)
   1:  0.00   2:  0.00   3:  0.00   4:  0.00   5:  0.00   6:  0.00   7:  0.00   8:  0.00
   9:  0.00  10:  0.00  11:  0.00  12:  0.00  13:  0.00  14:  0.00  15:  0.00  16:  0.00
  17:  0.00  18:  0.00  19:  0.00  20:  0.00  21:  0.00  22:  0.00  23:  0.00  24:  0.00
  25:  0.00  26:  0.00  27:  0.00  28:  0.00  29:  0.00  30:  0.00  31:  0.00  32:  0.00
  33:  0.00  34:  0.00  35:  0.00  36:  0.00  37:  0.00  38:  0.00  39:  0.00  40:  0.00
  41:  0.00  42:  0.00  43:  0.00  44:  0.00  45:  0.00  46:  0.00  47:  0.00  48:  0.00
  49:  0.00  50:  0.00  51:  0.00  52:  0.00  53:  0.00  54:  0.00  55:  0.00  56:  0.00
  57:  0.00  58:  0.00  59:  0.00  60:  0.00  61:  0.00  62:  0.00  63:  0.00
 output can be read by thermo (or use thermo option).
 writing <g98.out> molden fake output.
 recommended (thermochemical) frequency scaling factor: 1.0
           -------------------------------------------------
          |             Thermodynamic Functions             |
           -------------------------------------------------

Molecule has the following symmetry elements: (sigma) 
It seems to be the Cs point group
cs  symmetry found (for desy threshold:  0.10E+00) used in thermo

          ...................................................
          :                      SETUP                      :
          :.................................................:
          :  # frequencies                          57      :
          :  # imaginary freq.                       0      :
          :  linear?                             false      :
          :  only rotor calc.                    false      :
          :  symmetry                               cs      :
          :  rotational number                       1      :
          :  scaling factor                  1.0000000      :
          :  rotor cutoff                   50.0000000 cm⁻¹ :
          :  imag. cutoff                  -20.0000000 cm⁻¹ :
          :.................................................:

    mode    ω/cm⁻¹     T·S(HO)/kcal·mol⁻¹    T·S(FR)/kcal·mol⁻¹   T·S(vib)
   ------------------------------------------------------------------------
       1     54.49    -1.38562 ( 58.52%)    -1.03092 ( 41.48%)    -1.23847
       2     91.38    -1.08238 ( 91.77%)    -0.87783 (  8.23%)    -1.06555
       3    148.18    -0.80365 ( 98.72%)    -0.73465 (  1.28%)    -0.80276
       4    181.63    -0.68920 ( 99.43%)    -0.67437 (  0.57%)    -0.68911
       5    183.31    -0.68410 ( 99.45%)    -0.67165 (  0.55%)    -0.68403
       6    231.16    -0.55752 ( 99.78%)    -0.60294 (  0.22%)    -0.55762
       7    232.58    -0.55423 ( 99.79%)    -0.60112 (  0.21%)    -0.55433
       8    270.08    -0.47576 ( 99.88%)    -0.55685 (  0.12%)    -0.47586
   ------------------------------------------------------------------------

   temp. (K)  partition function   enthalpy   heat capacity  entropy
                                   cal/mol     cal/K/mol   cal/K/mol   J/K/mol
 298.15  VIB   921.                 5188.336     35.620     30.415
         ROT  0.866E+06              888.752      2.981     30.149
         INT  0.798E+09             6077.089     38.601     60.565
         TR   0.185E+28             1481.254      4.968     40.990
         TOT                        7558.3425    43.5688   101.5542   424.9028

       T/K    H(0)-H(T)+PV         H(T)/Eh          T*S/Eh         G(T)/Eh
   ------------------------------------------------------------------------
    298.15    0.120450E-01    0.175163E+00    0.482517E-01    0.126911E+00
   ------------------------------------------------------------------------

         :::::::::::::::::::::::::::::::::::::::::::::::::::::
         ::                  THERMODYNAMIC                  ::
         :::::::::::::::::::::::::::::::::::::::::::::::::::::
         :: total free energy         -34.296280796577 Eh   ::
         ::.................................................::
         :: total energy              -34.423192040289 Eh   ::
         :: zero point energy           0.163117937254 Eh   ::
         :: G(RRHO) w/o ZPVE           -0.036206693542 Eh   ::
         :: G(RRHO) contrib.            0.126911243712 Eh   ::
         :::::::::::::::::::::::::::::::::::::::::::::::::::::

optimized geometry written to: xtbopt.xyz


           -------------------------------------------------
          | TOTAL ENERGY              -34.423192040289 Eh   |
          | TOTAL ENTHALPY            -34.248029117526 Eh   |
          | TOTAL FREE ENERGY         -34.296280796577 Eh   |
          | GRADIENT NORM               0.000644678868 Eh/α |
          | HOMO-LUMO GAP               4.127087936874 eV   |
           -------------------------------------------------

------------------------------------------------------------------------
 * finished run on 2021/11/15 at 09:36:10.669     
------------------------------------------------------------------------
 total:
 * wall-time:     0 d,  0 h,  0 min,  1.446 sec
 *  cpu-time:     0 d,  0 h,  0 min,  1.375 sec
 * ratio c/w:     0.951 speedup
 SCF:
 * wall-time:     0 d,  0 h,  0 min,  0.014 sec
 *  cpu-time:     0 d,  0 h,  0 min,  0.016 sec
 * ratio c/w:     1.105 speedup
 ANC optimizer:
 * wall-time:     0 d,  0 h,  0 min,  0.109 sec
 *  cpu-time:     0 d,  0 h,  0 min,  0.062 sec
 * ratio c/w:     0.573 speedup
 analytical hessian:
 * wall-time:     0 d,  0 h,  0 min,  1.284 sec
 *  cpu-time:     0 d,  0 h,  0 min,  1.281 sec
 * ratio c/w:     0.998 speedup

