 Entering Gaussian System
 *********************************************
 Gaussian 98:
 frequency output generated by the xtb code
 *********************************************
                         Standard orientation:
 --------------------------------------------------------------------
  Center     Atomic     Atomic              Coordinates (Angstroms)
  Number     Number      Type              X           Y           Z
 --------------------------------------------------------------------
    1          6             0       -0.030242    2.088417   -0.000004
    2          6             0        1.183327    1.425145   -0.000007
    3          6             0        1.199331    0.038286   -0.000004
    4          6             0       -0.001462   -0.678829    0.000001
    5          6             0       -1.223871    0.003477    0.000004
    6          6             0       -1.225862    1.393236    0.000002
    7          8             0       -0.001306   -2.044008    0.000004
    8          1             0        0.920980   -2.349719    0.000001
    9          1             0        2.101108    1.988419   -0.000011
   10          1             0       -0.044778    3.166481   -0.000005
   11          8             0        2.330370   -0.746690   -0.000007
   12          6             0        3.590083   -0.105760   -0.000012
   13          1             0        3.719552    0.508704    0.894334
   14          1             0        4.320055   -0.912085   -0.000013
   15          1             0        3.719546    0.508700   -0.894362
   16          1             0       -2.154771    1.937852    0.000004
   17          8             0       -2.339125   -0.787148    0.000010
   18          6             0       -3.605073   -0.157360    0.000013
   19          1             0       -4.326059   -0.971588    0.000017
   20          1             0       -3.742225    0.455807    0.894761
   21          1             0       -3.742232    0.455804   -0.894736
 --------------------------------------------------------------------
     1 basis functions        1 primitive gaussians
     1 alpha electrons        1 beta electrons
 
 Harmonic frequencies (cm**-1), IR intensities (km*mol⁻¹),
 Raman scattering activities (A**4/amu), Raman depolarization ratios,
 reduced masses (AMU), force constants (mDyne/A) and normal coordinates:
                      1                      2                      3
                        a                      a                      a 
 Frequencies --    54.4904                91.3791               148.1812
 Red. masses --     9.2908                11.1699                13.9443
 Frc consts  --     0.0000                 0.0000                 0.0000
 IR Inten    --     9.9190                 0.0229                 6.7027
 Raman Activ --     0.0000                 0.0000                 0.0000
 Depolar     --     0.0000                 0.0000                 0.0000
 Atom AN      X      Y      Z        X      Y      Z        X      Y      Z
   1   6     0.00   0.00   0.15    -0.00   0.00  -0.03     0.00   0.00   0.18
   2   6     0.00   0.00   0.14     0.00   0.00   0.18     0.00   0.00   0.02
   3   6     0.00   0.00   0.15     0.00   0.00   0.19    -0.00   0.00  -0.08
   4   6     0.00   0.00   0.17    -0.00   0.00  -0.03     0.00   0.00   0.13
   5   6     0.00   0.00   0.11    -0.00  -0.00  -0.19    -0.00  -0.00  -0.09
   6   6     0.00   0.00   0.12    -0.00  -0.00  -0.21     0.00  -0.00   0.03
   7   8     0.00   0.00   0.26     0.00   0.00  -0.08     0.00   0.00   0.58
   8   1     0.00   0.00   0.05     0.00   0.00  -0.01     0.00   0.00   0.14
   9   1     0.00   0.00   0.04     0.00   0.00   0.10    -0.00   0.00  -0.01
  10   1     0.00   0.00   0.05    -0.00   0.00  -0.02     0.00   0.00   0.10
  11   8     0.00   0.00   0.12     0.00   0.00   0.48    -0.00  -0.00  -0.43
  12   6    -0.00  -0.00  -0.54    -0.00  -0.00  -0.28    -0.00  -0.00   0.02
  13   1     0.12   0.03  -0.20     0.12   0.06  -0.14    -0.04  -0.09   0.07
  14   1    -0.00  -0.00  -0.22    -0.00  -0.00  -0.12    -0.00  -0.00  -0.04
  15   1    -0.12  -0.03  -0.20    -0.12  -0.06  -0.14     0.04   0.09   0.07
  16   1     0.00   0.00   0.03    -0.00  -0.00  -0.11     0.00  -0.00  -0.00
  17   8     0.00  -0.00   0.03    -0.00  -0.00  -0.41    -0.00  -0.00  -0.54
  18   6    -0.00  -0.00  -0.48     0.00   0.00   0.37    -0.00   0.00   0.08
  19   1    -0.00  -0.00  -0.20     0.00   0.00   0.16    -0.00   0.00  -0.03
  20   1    -0.10   0.02  -0.16     0.13  -0.05   0.16     0.06  -0.11   0.11
  21   1     0.10  -0.02  -0.16    -0.13   0.05   0.16    -0.06   0.11   0.11
                      4                      5                      6
                        a                      a                      a 
 Frequencies --   181.6308               183.3065               231.1588
 Red. masses --     5.7847                10.2721                12.0097
 Frc consts  --     0.0000                 0.0000                 0.0000
 IR Inten    --     0.0667                 4.3139                 4.9033
 Raman Activ --     0.0000                 0.0000                 0.0000
 Depolar     --     0.0000                 0.0000                 0.0000
 Atom AN      X      Y      Z        X      Y      Z        X      Y      Z
   1   6    -0.00   0.00   0.01     0.01   0.15  -0.00     0.18  -0.01   0.00
   2   6     0.00   0.00   0.37     0.03   0.16  -0.00     0.09  -0.15   0.00
   3   6     0.00   0.00   0.09     0.02   0.16  -0.00     0.04  -0.16  -0.00
   4   6     0.00   0.00   0.01    -0.00   0.22  -0.00    -0.03  -0.01   0.00
   5   6    -0.00   0.00  -0.09    -0.01   0.18   0.00     0.04   0.15  -0.00
   6   6    -0.00   0.00  -0.38    -0.03   0.18   0.00     0.09   0.13  -0.00
   7   8    -0.00   0.00   0.02    -0.06   0.27  -0.00    -0.65  -0.01   0.00
   8   1    -0.00   0.00   0.02    -0.02   0.06  -0.00    -0.20  -0.12  -0.00
   9   1     0.00   0.00   0.21     0.01   0.04  -0.00     0.03  -0.06   0.00
  10   1    -0.00   0.00   0.00     0.00   0.04  -0.00     0.09  -0.00   0.00
  11   8    -0.00  -0.00  -0.24    -0.16  -0.07   0.00     0.17  -0.03  -0.00
  12   6     0.00  -0.00  -0.01     0.05  -0.46   0.00    -0.03   0.35  -0.00
  13   1     0.08  -0.25   0.16     0.07  -0.14  -0.00    -0.06   0.11   0.00
  14   1    -0.00  -0.00  -0.30    -0.06  -0.20   0.00     0.06   0.17   0.00
  15   1    -0.08   0.25   0.16     0.07  -0.14   0.00    -0.06   0.11  -0.00
  16   1    -0.00   0.00  -0.22    -0.01   0.05   0.00     0.03   0.05  -0.00
  17   8     0.00  -0.00   0.21     0.19  -0.07  -0.00     0.17   0.02  -0.00
  18   6    -0.00  -0.00   0.00    -0.03  -0.49   0.00     0.01  -0.28  -0.00
  19   1     0.00  -0.00   0.27     0.07  -0.21  -0.00     0.06  -0.13   0.00
  20   1     0.07   0.22  -0.14    -0.07  -0.15  -0.00    -0.04  -0.09  -0.00
  21   1    -0.07  -0.22  -0.14    -0.07  -0.15   0.00    -0.04  -0.09   0.00
                      7                      8                      9
                        a                      a                      a 
 Frequencies --   232.5836               270.0756               321.8438
 Red. masses --     1.9919                 6.2017                10.9367
 Frc consts  --     0.0000                 0.0000                 0.0000
 IR Inten    --     0.8327                 0.0539                 0.0016
 Raman Activ --     0.0000                 0.0000                 0.0000
 Depolar     --     0.0000                 0.0000                 0.0000
 Atom AN      X      Y      Z        X      Y      Z        X      Y      Z
   1   6     0.00  -0.00  -0.20     0.00  -0.00  -0.01    -0.00  -0.00  -0.28
   2   6     0.00  -0.00  -0.08    -0.00  -0.00  -0.38     0.00   0.00   0.04
   3   6     0.00  -0.00   0.06    -0.00  -0.00  -0.06     0.00   0.00   0.39
   4   6    -0.00  -0.00   0.02    -0.00  -0.00  -0.00     0.00   0.00   0.52
   5   6     0.00   0.00   0.07    -0.00  -0.00   0.06     0.00  -0.00   0.37
   6   6     0.00   0.00  -0.02     0.00   0.00   0.39     0.00  -0.00   0.03
   7   8    -0.00  -0.00  -0.07     0.00  -0.00  -0.01     0.00  -0.00  -0.24
   8   1    -0.00  -0.00  -0.03     0.00   0.00  -0.02    -0.00  -0.00  -0.26
   9   1     0.00  -0.00  -0.01    -0.00  -0.00  -0.19    -0.00   0.00  -0.09
  10   1     0.00  -0.00  -0.10     0.00  -0.00  -0.00    -0.00  -0.00  -0.24
  11   8     0.00  -0.00   0.11     0.00   0.00   0.25    -0.00  -0.00  -0.26
  12   6    -0.00   0.00   0.03    -0.00   0.00   0.04    -0.00  -0.00  -0.01
  13   1     0.15  -0.30   0.19     0.13  -0.20   0.13    -0.06   0.02  -0.01
  14   1     0.00   0.00  -0.39    -0.00  -0.00  -0.28    -0.00  -0.00   0.07
  15   1    -0.15   0.30   0.19    -0.13   0.20   0.13     0.06  -0.02  -0.01
  16   1     0.00   0.00   0.02     0.00   0.00   0.19    -0.00  -0.00  -0.09
  17   8     0.00   0.00   0.08    -0.00   0.00  -0.24    -0.00  -0.00  -0.26
  18   6     0.00  -0.00   0.03    -0.00  -0.00  -0.04     0.00   0.00  -0.02
  19   1     0.00  -0.00  -0.39     0.00   0.00   0.31     0.00   0.00   0.05
  20   1    -0.15  -0.30   0.19     0.13   0.22  -0.15     0.05   0.02  -0.01
  21   1     0.15   0.30   0.19    -0.13  -0.22  -0.15    -0.05  -0.02  -0.01
                     10                     11                     12
                        a                      a                      a 
 Frequencies --   327.6858               353.7013               379.2676
 Red. masses --    10.9630                11.5009                 2.7526
 Frc consts  --     0.0000                 0.0000                 0.0000
 IR Inten    --     3.9310                 0.4677               216.8846
 Raman Activ --     0.0000                 0.0000                 0.0000
 Depolar     --     0.0000                 0.0000                 0.0000
 Atom AN      X      Y      Z        X      Y      Z        X      Y      Z
   1   6    -0.28  -0.01   0.00     0.01   0.07   0.00     0.00   0.00   0.05
   2   6    -0.22   0.08  -0.00    -0.01   0.03  -0.00     0.00   0.00  -0.02
   3   6     0.04   0.06  -0.00    -0.11   0.03   0.00    -0.00   0.00  -0.06
   4   6     0.06   0.01  -0.00    -0.00   0.00  -0.00     0.00  -0.00  -0.10
   5   6     0.04  -0.07   0.00     0.11   0.03  -0.00    -0.00  -0.00  -0.10
   6   6    -0.22  -0.09   0.00     0.03   0.03  -0.00     0.00  -0.00  -0.04
   7   8    -0.43   0.01   0.00     0.04   0.02  -0.00     0.00   0.00   0.30
   8   1    -0.14  -0.10  -0.00     0.01   0.02   0.00    -0.00  -0.00  -0.93
   9   1    -0.08   0.05  -0.00    -0.00   0.00   0.00     0.00   0.00   0.03
  10   1    -0.10  -0.00   0.00     0.00   0.02   0.00     0.00   0.00   0.05
  11   8     0.14   0.17   0.00    -0.37  -0.18   0.00    -0.00  -0.00   0.07
  12   6     0.31  -0.17  -0.00    -0.50   0.05   0.00    -0.00  -0.00   0.02
  13   1     0.14  -0.06  -0.00    -0.19   0.03  -0.00     0.01  -0.00   0.01
  14   1     0.01  -0.12  -0.00    -0.08   0.07  -0.00    -0.00   0.00   0.00
  15   1     0.14  -0.06   0.00    -0.19   0.03   0.00    -0.01   0.00   0.01
  16   1    -0.07  -0.05   0.00     0.01   0.01   0.00     0.00  -0.00  -0.00
  17   8     0.16  -0.19  -0.00     0.35  -0.17  -0.00    -0.00   0.00   0.04
  18   6     0.35   0.21  -0.00     0.47   0.06  -0.00    -0.00  -0.00   0.00
  19   1     0.01   0.14   0.00     0.07   0.07  -0.00    -0.00  -0.00  -0.01
  20   1     0.17   0.07   0.00     0.18   0.03  -0.00    -0.01   0.00  -0.00
  21   1     0.17   0.07  -0.00     0.18   0.03   0.00     0.01  -0.00  -0.00
                     13                     14                     15
                        a                      a                      a 
 Frequencies --   467.5799               503.9544               511.6508
 Red. masses --    13.1161                12.5303                10.3698
 Frc consts  --     0.0000                 0.0000                 0.0000
 IR Inten    --     2.6239                13.1554                 0.0796
 Raman Activ --     0.0000                 0.0000                 0.0000
 Depolar     --     0.0000                 0.0000                 0.0000
 Atom AN      X      Y      Z        X      Y      Z        X      Y      Z
   1   6     0.02  -0.32  -0.00    -0.26  -0.02  -0.00    -0.00  -0.00   0.51
   2   6     0.19  -0.04  -0.00    -0.34  -0.25   0.00    -0.00  -0.00  -0.40
   3   6     0.22  -0.02  -0.00     0.09  -0.26  -0.00     0.00  -0.00  -0.08
   4   6     0.00   0.36  -0.00     0.01   0.02  -0.00     0.00   0.00   0.47
   5   6    -0.22  -0.06   0.00     0.06   0.26   0.00     0.00   0.00  -0.04
   6   6    -0.14  -0.09   0.00    -0.37   0.24   0.00    -0.00   0.00  -0.38
   7   8    -0.02   0.53  -0.00     0.22   0.02   0.00     0.00   0.00  -0.18
   8   1    -0.01   0.12  -0.00     0.08   0.07  -0.00     0.00   0.00  -0.03
   9   1     0.01   0.06   0.00    -0.12  -0.03   0.00    -0.00  -0.00  -0.21
  10   1    -0.00  -0.09  -0.00     0.03  -0.00  -0.00     0.00   0.00   0.27
  11   8     0.14  -0.29   0.00     0.21  -0.34  -0.00     0.00  -0.00   0.09
  12   6    -0.02   0.06  -0.00     0.06   0.01  -0.00     0.00   0.00   0.01
  13   1    -0.07   0.03  -0.00    -0.04   0.02  -0.00     0.02  -0.01   0.01
  14   1     0.07   0.09  -0.00     0.09   0.07   0.00     0.00   0.00  -0.03
  15   1    -0.07   0.03   0.00    -0.04   0.02   0.00    -0.02   0.01   0.01
  16   1     0.01   0.05   0.00    -0.12   0.03   0.00    -0.00   0.00  -0.21
  17   8    -0.16  -0.32   0.00     0.19   0.30  -0.00     0.00   0.00   0.06
  18   6     0.00   0.07  -0.00     0.06  -0.00  -0.00     0.00   0.00   0.01
  19   1    -0.09   0.10   0.00     0.08  -0.06   0.00     0.00  -0.00  -0.03
  20   1     0.07   0.03  -0.00    -0.03  -0.01   0.00    -0.01  -0.02   0.01
  21   1     0.07   0.03   0.00    -0.03  -0.01  -0.00     0.01   0.02   0.01
                     16                     17                     18
                        a                      a                      a 
 Frequencies --   565.1096               595.0847               656.8780
 Red. masses --    11.6586                10.5900                11.8720
 Frc consts  --     0.0000                 0.0000                 0.0000
 IR Inten    --     0.0115                20.0434                 1.7773
 Raman Activ --     0.0000                 0.0000                 0.0000
 Depolar     --     0.0000                 0.0000                 0.0000
 Atom AN      X      Y      Z        X      Y      Z        X      Y      Z
   1   6     0.00   0.00  -0.02     0.19  -0.01  -0.00     0.00   0.00  -0.25
   2   6     0.00   0.00   0.17    -0.01  -0.29   0.00     0.00  -0.00   0.26
   3   6    -0.00   0.00  -0.64    -0.27  -0.18  -0.00    -0.00  -0.00  -0.47
   4   6     0.00  -0.00  -0.01    -0.35  -0.00  -0.00     0.00   0.00   0.58
   5   6     0.00  -0.00   0.65    -0.27   0.17   0.00    -0.00  -0.00  -0.47
   6   6     0.00  -0.00  -0.14    -0.03   0.28  -0.00     0.00   0.00   0.25
   7   8    -0.00   0.00  -0.00     0.16  -0.02   0.00     0.00  -0.00  -0.09
   8   1    -0.00  -0.00  -0.01     0.10   0.15  -0.00     0.00   0.00  -0.03
   9   1     0.00   0.00   0.16     0.05  -0.18   0.00     0.00  -0.00   0.09
  10   1    -0.00   0.00  -0.01     0.15  -0.00  -0.00     0.00   0.00   0.00
  11   8    -0.00   0.00   0.17    -0.02   0.29   0.00    -0.00   0.00   0.06
  12   6    -0.00   0.00   0.02     0.18   0.05  -0.00    -0.00   0.00   0.01
  13   1     0.03   0.00  -0.00     0.12  -0.01   0.00     0.01   0.00  -0.00
  14   1    -0.00   0.00  -0.01    -0.04  -0.07   0.00    -0.00  -0.00  -0.00
  15   1    -0.03  -0.00  -0.00     0.12  -0.01  -0.00    -0.01  -0.00  -0.00
  16   1     0.00  -0.00  -0.15     0.05   0.18  -0.00     0.00   0.00   0.09
  17   8    -0.00  -0.00  -0.17    -0.02  -0.30  -0.00    -0.00  -0.00   0.07
  18   6    -0.00  -0.00  -0.02     0.18  -0.05  -0.00     0.00  -0.00   0.01
  19   1    -0.00  -0.00   0.01    -0.05   0.08   0.00    -0.00   0.00  -0.00
  20   1     0.02  -0.00  -0.00     0.13   0.01  -0.00    -0.01   0.00  -0.00
  21   1    -0.02   0.00  -0.00     0.13   0.01   0.00     0.01  -0.00  -0.00
                     19                     20                     21
                        a                      a                      a 
 Frequencies --   715.2319               782.9572               812.3188
 Red. masses --    12.3591                 3.0895                11.9400
 Frc consts  --     0.0000                 0.0000                 0.0000
 IR Inten    --    47.5371                53.6588                44.0066
 Raman Activ --     0.0000                 0.0000                 0.0000
 Depolar     --     0.0000                 0.0000                 0.0000
 Atom AN      X      Y      Z        X      Y      Z        X      Y      Z
   1   6    -0.00   0.59  -0.00    -0.00  -0.00  -0.22     0.00  -0.28   0.00
   2   6    -0.12   0.20  -0.00     0.00   0.00  -0.23     0.38   0.28   0.00
   3   6     0.06   0.02   0.00     0.00   0.00   0.11     0.15   0.17  -0.00
   4   6    -0.00  -0.08  -0.00     0.00  -0.00   0.11     0.01  -0.02  -0.00
   5   6    -0.08   0.01   0.00     0.00   0.00   0.11    -0.13   0.17  -0.00
   6   6     0.12   0.20  -0.00    -0.00   0.00  -0.21    -0.39   0.28   0.00
   7   8     0.01  -0.16   0.00    -0.00  -0.00  -0.03     0.01  -0.51   0.00
   8   1     0.00  -0.04   0.00     0.00  -0.00   0.00     0.00  -0.11   0.00
   9   1    -0.01   0.03  -0.00     0.00   0.00   0.56     0.04   0.19  -0.00
  10   1    -0.00   0.17  -0.00     0.00   0.00   0.48     0.00  -0.07  -0.00
  11   8     0.21  -0.38  -0.00     0.00  -0.00  -0.04    -0.01  -0.01   0.00
  12   6     0.08  -0.01  -0.00     0.00  -0.00  -0.00    -0.03  -0.02   0.00
  13   1    -0.07   0.02  -0.00    -0.00   0.01  -0.01    -0.03   0.00  -0.00
  14   1     0.14   0.10  -0.00     0.00   0.00   0.02     0.02   0.02  -0.00
  15   1    -0.07   0.02   0.00     0.00  -0.01  -0.01    -0.03   0.00   0.00
  16   1     0.02   0.04  -0.00     0.00   0.00   0.51    -0.04   0.19  -0.00
  17   8    -0.20  -0.38   0.00    -0.00  -0.00  -0.04    -0.00  -0.03   0.00
  18   6    -0.08  -0.01   0.00    -0.00   0.00   0.00     0.01  -0.01   0.00
  19   1    -0.14   0.10   0.00    -0.00   0.00   0.02    -0.03   0.03   0.00
  20   1     0.07   0.02  -0.00     0.00   0.01  -0.01     0.03   0.00  -0.00
  21   1     0.07   0.02   0.00    -0.00  -0.01  -0.01     0.03   0.00   0.00
                     22                     23                     24
                        a                      a                      a 
 Frequencies --   851.9267               894.5414               897.3291
 Red. masses --     3.7625                10.9011                 3.1589
 Frc consts  --     0.0000                 0.0000                 0.0000
 IR Inten    --     0.0124                92.0609                 0.2424
 Raman Activ --     0.0000                 0.0000                 0.0000
 Depolar     --     0.0000                 0.0000                 0.0000
 Atom AN      X      Y      Z        X      Y      Z        X      Y      Z
   1   6    -0.00  -0.00   0.03     0.03   0.02   0.00     0.00   0.00   0.37
   2   6    -0.00   0.00  -0.35    -0.13  -0.26  -0.00     0.00   0.00  -0.13
   3   6    -0.00   0.00   0.05     0.30  -0.08  -0.00    -0.00   0.00  -0.06
   4   6    -0.00   0.00   0.01     0.37   0.02   0.00    -0.00  -0.00   0.08
   5   6    -0.00   0.00  -0.07     0.28   0.06  -0.00    -0.00  -0.00  -0.06
   6   6     0.00  -0.00   0.35    -0.11   0.24  -0.00     0.00  -0.00  -0.18
   7   8    -0.00  -0.00  -0.00     0.02   0.05  -0.00    -0.00  -0.00  -0.00
   8   1     0.00   0.00   0.01    -0.06  -0.19   0.00     0.00   0.00  -0.00
   9   1     0.00   0.00   0.61    -0.04  -0.06   0.00     0.00   0.00   0.31
  10   1    -0.00  -0.00  -0.07     0.19   0.01  -0.00    -0.00  -0.00  -0.74
  11   8     0.00  -0.00  -0.02    -0.05   0.29  -0.00     0.00  -0.00  -0.00
  12   6     0.00   0.00   0.00    -0.29  -0.06   0.00     0.00   0.00   0.00
  13   1     0.00   0.01  -0.01     0.01  -0.03  -0.00     0.00   0.00  -0.00
  14   1     0.00   0.00   0.02    -0.17  -0.10   0.00     0.00   0.00   0.01
  15   1    -0.00  -0.01  -0.01     0.01  -0.03   0.00    -0.00  -0.00  -0.00
  16   1    -0.00  -0.00  -0.60    -0.04   0.05   0.00     0.00  -0.00   0.40
  17   8     0.00   0.00   0.02    -0.05  -0.29   0.00     0.00   0.00  -0.00
  18   6     0.00  -0.00  -0.00    -0.29   0.06   0.00     0.00  -0.00   0.00
  19   1     0.00  -0.00  -0.02    -0.17   0.10   0.00     0.00  -0.00   0.01
  20   1     0.01  -0.01   0.01     0.00   0.03  -0.00    -0.01   0.01  -0.00
  21   1    -0.01   0.01   0.01     0.00   0.03   0.00     0.01  -0.01  -0.00
                     25                     26                     27
                        a                      a                      a 
 Frequencies --  1039.1256              1082.5904              1113.0029
 Red. masses --    12.5925                11.9603                 7.4110
 Frc consts  --     0.0000                 0.0000                 0.0000
 IR Inten    --    31.5623               407.3550                38.7023
 Raman Activ --     0.0000                 0.0000                 0.0000
 Depolar     --     0.0000                 0.0000                 0.0000
 Atom AN      X      Y      Z        X      Y      Z        X      Y      Z
   1   6    -0.00  -0.11   0.00    -0.03   0.00   0.00     0.00   0.19  -0.00
   2   6     0.06   0.03   0.00     0.04   0.09  -0.00     0.36   0.07  -0.00
   3   6    -0.24   0.06   0.00    -0.05  -0.07   0.00    -0.20  -0.04   0.00
   4   6    -0.01  -0.07   0.00    -0.18   0.02   0.00     0.01  -0.21   0.00
   5   6     0.24   0.07  -0.00    -0.10   0.06   0.00     0.14  -0.05  -0.00
   6   6    -0.05   0.02   0.00     0.07  -0.10  -0.00    -0.38   0.05   0.00
   7   8    -0.02   0.06   0.00    -0.06  -0.08   0.00     0.02   0.20  -0.00
   8   1     0.02   0.07  -0.00     0.09   0.29  -0.00    -0.02  -0.04   0.00
   9   1     0.04  -0.04  -0.00     0.01   0.03  -0.00     0.31  -0.31  -0.00
  10   1    -0.01  -0.03  -0.00    -0.20  -0.00   0.00    -0.01   0.06  -0.00
  11   8    -0.34  -0.18   0.00     0.51   0.10  -0.00     0.15  -0.08  -0.00
  12   6     0.38   0.12  -0.00    -0.38  -0.13   0.00    -0.11   0.09  -0.00
  13   1    -0.00   0.03   0.00     0.02  -0.04  -0.00     0.11  -0.03   0.02
  14   1     0.15   0.09  -0.00    -0.14  -0.08   0.00    -0.13  -0.08   0.00
  15   1    -0.00   0.03  -0.00     0.02  -0.04   0.00     0.11  -0.03  -0.02
  16   1    -0.04  -0.05  -0.00     0.03  -0.01   0.00    -0.27  -0.27   0.00
  17   8     0.43  -0.20  -0.00     0.43  -0.06  -0.00    -0.09  -0.08   0.00
  18   6    -0.45   0.15   0.00    -0.31   0.10   0.00     0.08   0.11  -0.00
  19   1    -0.17   0.09   0.00    -0.10   0.06   0.00     0.14  -0.08   0.00
  20   1    -0.01   0.04   0.01     0.02   0.03   0.00    -0.11  -0.03   0.02
  21   1    -0.01   0.04  -0.01     0.02   0.03  -0.00    -0.11  -0.03  -0.02
                     28                     29                     30
                        a                      a                      a 
 Frequencies --  1114.3128              1116.7005              1138.0661
 Red. masses --     3.6752                 3.6778                 5.9554
 Frc consts  --     0.0000                 0.0000                 0.0000
 IR Inten    --     2.8296                 2.5593               156.9807
 Raman Activ --     0.0000                 0.0000                 0.0000
 Depolar     --     0.0000                 0.0000                 0.0000
 Atom AN      X      Y      Z        X      Y      Z        X      Y      Z
   1   6    -0.00  -0.00   0.00    -0.00   0.00  -0.00    -0.00   0.08  -0.00
   2   6    -0.00  -0.00   0.00     0.00   0.00   0.00     0.00  -0.10  -0.00
   3   6     0.00   0.00  -0.00    -0.00   0.00   0.00     0.23   0.02  -0.00
   4   6    -0.00   0.00   0.00     0.00  -0.00  -0.00    -0.10   0.17   0.00
   5   6    -0.00   0.00   0.00     0.00  -0.00   0.00    -0.01  -0.12   0.00
   6   6     0.00  -0.00  -0.00    -0.00   0.00  -0.00     0.01   0.05  -0.00
   7   8    -0.00  -0.00   0.00    -0.00   0.00   0.00    -0.11  -0.19   0.00
   8   1     0.00   0.00  -0.00     0.00   0.00  -0.00     0.11   0.34  -0.00
   9   1    -0.00   0.00   0.00     0.00  -0.00  -0.02    -0.06   0.07   0.00
  10   1     0.00  -0.00  -0.00     0.00   0.00   0.00     0.19   0.03  -0.00
  11   8    -0.00   0.00   0.01    -0.00  -0.00  -0.22    -0.10   0.11   0.00
  12   6     0.00  -0.00  -0.01     0.00   0.00   0.42     0.05  -0.07  -0.00
  13   1    -0.02  -0.01   0.01     0.50   0.28  -0.17    -0.09   0.02  -0.01
  14   1     0.00   0.00   0.01    -0.00  -0.00  -0.23     0.10   0.06  -0.00
  15   1     0.02   0.01   0.01    -0.50  -0.28  -0.17    -0.09   0.02   0.01
  16   1     0.00   0.00   0.02    -0.00  -0.00   0.00    -0.06  -0.10   0.00
  17   8     0.00   0.00   0.22    -0.00  -0.00   0.01     0.05  -0.26   0.00
  18   6    -0.00  -0.00  -0.42     0.00   0.00  -0.01     0.04   0.35  -0.00
  19   1    -0.00   0.00   0.23     0.00  -0.00   0.01     0.39  -0.26  -0.00
  20   1     0.51  -0.27   0.17     0.02  -0.01   0.01    -0.28  -0.05   0.04
  21   1    -0.51   0.27   0.17    -0.02   0.01   0.01    -0.28  -0.05  -0.04
                     31                     32                     33
                        a                      a                      a 
 Frequencies --  1145.0404              1154.1000              1182.7865
 Red. masses --     7.2721                 5.3476                 7.2041
 Frc consts  --     0.0000                 0.0000                 0.0000
 IR Inten    --    19.5676               464.6484                10.5795
 Raman Activ --     0.0000                 0.0000                 0.0000
 Depolar     --     0.0000                 0.0000                 0.0000
 Atom AN      X      Y      Z        X      Y      Z        X      Y      Z
   1   6     0.01  -0.09   0.00    -0.06   0.04   0.00    -0.02   0.20  -0.00
   2   6     0.05   0.00   0.00     0.12  -0.04  -0.00     0.08  -0.14  -0.00
   3   6    -0.17   0.11   0.00     0.24  -0.06  -0.00     0.23  -0.04  -0.00
   4   6    -0.04  -0.27   0.00    -0.08  -0.01   0.00     0.04   0.38  -0.00
   5   6     0.22   0.01  -0.00     0.26   0.04  -0.00    -0.26  -0.04   0.00
   6   6    -0.06   0.08   0.00     0.01   0.03  -0.00    -0.09  -0.15   0.00
   7   8    -0.05   0.15  -0.00    -0.16  -0.12   0.00     0.02  -0.21   0.00
   8   1     0.03   0.16  -0.00     0.17   0.56  -0.00    -0.01  -0.08   0.00
   9   1     0.01  -0.00  -0.00    -0.05   0.14  -0.00     0.27  -0.43  -0.00
  10   1     0.13  -0.02  -0.00     0.02   0.01  -0.00    -0.14   0.05   0.00
  11   8     0.18   0.27  -0.00    -0.15  -0.04   0.00    -0.14   0.15   0.00
  12   6    -0.03  -0.40   0.00     0.04   0.14  -0.00     0.06  -0.11   0.00
  13   1    -0.29   0.04  -0.04     0.08  -0.01   0.01    -0.13   0.01  -0.01
  14   1     0.40   0.28  -0.00    -0.15  -0.10   0.00     0.19   0.13  -0.00
  15   1    -0.29   0.04   0.04     0.08  -0.01  -0.01    -0.13   0.01   0.01
  16   1    -0.06  -0.06   0.00    -0.17  -0.30   0.00    -0.13  -0.21   0.00
  17   8    -0.14   0.03   0.00    -0.20   0.11   0.00     0.14   0.15  -0.00
  18   6     0.05  -0.10   0.00     0.06  -0.22   0.00    -0.05  -0.09   0.00
  19   1    -0.09   0.06   0.00    -0.24   0.17   0.00    -0.13   0.09   0.00
  20   1     0.05   0.00  -0.01     0.14   0.01  -0.02     0.10   0.01  -0.01
  21   1     0.05   0.00   0.01     0.14   0.01   0.02     0.10   0.01   0.01
                     34                     35                     36
                        a                      a                      a 
 Frequencies --  1203.2277              1242.7488              1309.2673
 Red. masses --     3.2614                 4.7745                10.1547
 Frc consts  --     0.0000                 0.0000                 0.0000
 IR Inten    --   165.4097                87.8880               287.7637
 Raman Activ --     0.0000                 0.0000                 0.0000
 Depolar     --     0.0000                 0.0000                 0.0000
 Atom AN      X      Y      Z        X      Y      Z        X      Y      Z
   1   6     0.13   0.04  -0.00    -0.05  -0.02   0.00     0.02  -0.32   0.00
   2   6    -0.05   0.07   0.00    -0.16   0.09   0.00    -0.26   0.05   0.00
   3   6    -0.11   0.07   0.00    -0.05   0.27  -0.00    -0.18   0.33   0.00
   4   6    -0.07   0.09   0.00     0.22  -0.00  -0.00     0.02   0.28  -0.00
   5   6    -0.22  -0.09   0.00     0.01  -0.27   0.00     0.16   0.38  -0.00
   6   6    -0.07  -0.13   0.00    -0.14  -0.07   0.00     0.25   0.03  -0.00
   7   8     0.05  -0.01  -0.00    -0.13  -0.08   0.00     0.00  -0.21   0.00
   8   1    -0.05  -0.18   0.00     0.09   0.34  -0.00     0.00  -0.04  -0.00
   9   1    -0.14   0.23   0.00     0.20  -0.38  -0.00     0.09  -0.26   0.00
  10   1     0.72   0.02  -0.00     0.38   0.00  -0.00    -0.00  -0.10   0.00
  11   8     0.09  -0.04  -0.00     0.05  -0.13   0.00     0.15  -0.14  -0.00
  12   6    -0.03   0.00   0.00    -0.04   0.07   0.00    -0.09   0.02   0.00
  13   1     0.03   0.00  -0.00     0.06  -0.03   0.02     0.08  -0.03   0.01
  14   1    -0.03  -0.03   0.00    -0.03  -0.01   0.00     0.03   0.04  -0.00
  15   1     0.03   0.00   0.00     0.06  -0.03  -0.02     0.08  -0.03  -0.01
  16   1    -0.21  -0.35   0.00     0.21   0.41  -0.00    -0.09  -0.29   0.00
  17   8     0.17   0.10  -0.00     0.01   0.12  -0.00    -0.17  -0.16   0.00
  18   6    -0.06  -0.03   0.00    -0.03  -0.06   0.00     0.10   0.02  -0.00
  19   1    -0.09   0.06   0.00    -0.01  -0.01   0.00    -0.03   0.05   0.00
  20   1     0.06   0.00   0.00     0.05   0.02  -0.02    -0.10  -0.03   0.01
  21   1     0.06   0.00  -0.00     0.05   0.02   0.02    -0.10  -0.03  -0.01
                     37                     38                     39
                        a                      a                      a 
 Frequencies --  1354.2532              1387.6040              1391.9454
 Red. masses --    11.3623                 2.5145                 2.5512
 Frc consts  --     0.0000                 0.0000                 0.0000
 IR Inten    --    38.5318                 1.5080                 0.4797
 Raman Activ --     0.0000                 0.0000                 0.0000
 Depolar     --     0.0000                 0.0000                 0.0000
 Atom AN      X      Y      Z        X      Y      Z        X      Y      Z
   1   6    -0.42  -0.02   0.00     0.03  -0.04  -0.00    -0.03  -0.05   0.00
   2   6     0.18  -0.28  -0.00    -0.03  -0.02   0.00    -0.03   0.03  -0.00
   3   6     0.15   0.36  -0.00    -0.02   0.04  -0.00    -0.02   0.06   0.00
   4   6    -0.46   0.01   0.00     0.03   0.00  -0.00    -0.03   0.00   0.00
   5   6     0.15  -0.32  -0.00     0.02   0.04  -0.00     0.02   0.05  -0.00
   6   6     0.21   0.29  -0.00     0.03   0.05  -0.00     0.04   0.01  -0.00
   7   8     0.06   0.04  -0.00    -0.01  -0.01   0.00     0.01  -0.00  -0.00
   8   1    -0.07  -0.22   0.00     0.00   0.01  -0.00    -0.01  -0.03   0.00
   9   1     0.03  -0.05   0.00    -0.01  -0.00   0.00     0.05  -0.08  -0.00
  10   1     0.06  -0.00  -0.00    -0.04  -0.01   0.00     0.03  -0.02  -0.00
  11   8     0.07  -0.06  -0.00    -0.01  -0.02   0.00     0.13   0.02  -0.00
  12   6    -0.05   0.02   0.00    -0.06  -0.02   0.00     0.29   0.11  -0.00
  13   1     0.05  -0.00  -0.00     0.10   0.01  -0.02    -0.49  -0.08   0.14
  14   1    -0.01   0.00   0.00     0.08   0.08  -0.00    -0.39  -0.38   0.00
  15   1     0.05  -0.00   0.00     0.10   0.01   0.02    -0.49  -0.08  -0.14
  16   1     0.02   0.02  -0.00    -0.05  -0.09   0.00    -0.01  -0.03   0.00
  17   8     0.07   0.05  -0.00    -0.13   0.02   0.00    -0.03  -0.01   0.00
  18   6    -0.03  -0.02   0.00    -0.29   0.10   0.00    -0.05   0.02   0.00
  19   1    -0.03   0.02   0.00     0.39  -0.37  -0.00     0.07  -0.07  -0.00
  20   1     0.02   0.00  -0.00     0.49  -0.08   0.13     0.09  -0.02   0.03
  21   1     0.02   0.00   0.00     0.49  -0.08  -0.13     0.09  -0.02  -0.03
                     40                     41                     42
                        a                      a                      a 
 Frequencies --  1455.9999              1458.5994              1458.6368
 Red. masses --     1.5424                 9.9381                 1.5468
 Frc consts  --     0.0000                 0.0000                 0.0000
 IR Inten    --     7.6102               324.5902                 7.0477
 Raman Activ --     0.0000                 0.0000                 0.0000
 Depolar     --     0.0000                 0.0000                 0.0000
 Atom AN      X      Y      Z        X      Y      Z        X      Y      Z
   1   6     0.00   0.00  -0.00    -0.32  -0.04   0.00    -0.00  -0.00  -0.00
   2   6    -0.00  -0.00  -0.00     0.02   0.34  -0.00     0.00   0.00   0.00
   3   6    -0.00   0.00   0.00     0.33  -0.27  -0.00     0.00  -0.00  -0.00
   4   6     0.00   0.00  -0.00    -0.29  -0.18   0.00    -0.00  -0.00  -0.00
   5   6    -0.00  -0.00  -0.00     0.07   0.39  -0.00     0.00   0.00   0.00
   6   6    -0.00   0.00   0.00     0.11  -0.29   0.00     0.00  -0.00  -0.00
   7   8    -0.00  -0.00   0.00     0.06   0.08  -0.00     0.00   0.00   0.00
   8   1     0.00   0.00  -0.00    -0.02  -0.09   0.00    -0.00  -0.00  -0.00
   9   1    -0.00   0.00   0.02     0.17  -0.16  -0.00     0.00  -0.00   0.00
  10   1    -0.00   0.00  -0.00     0.30  -0.01  -0.00     0.00  -0.00  -0.00
  11   8     0.00  -0.00   0.03    -0.10   0.07   0.00    -0.00   0.00  -0.00
  12   6     0.00   0.00   0.22    -0.03   0.02   0.00    -0.00   0.00  -0.00
  13   1    -0.40   0.23  -0.09     0.03  -0.06   0.03     0.00  -0.00   0.00
  14   1    -0.00  -0.00  -0.71     0.06   0.06  -0.00     0.00   0.00   0.00
  15   1     0.40  -0.23  -0.09     0.03  -0.06  -0.03    -0.00   0.00   0.00
  16   1    -0.00  -0.00   0.00     0.12   0.07  -0.00     0.00   0.00   0.02
  17   8     0.00   0.00   0.00    -0.03  -0.08  -0.00    -0.00  -0.00   0.03
  18   6     0.00  -0.00   0.00    -0.02   0.01  -0.00    -0.00   0.00   0.22
  19   1    -0.00   0.00  -0.00     0.05  -0.05   0.00     0.00  -0.00  -0.72
  20   1     0.00   0.00  -0.00     0.01   0.03  -0.02     0.40   0.23  -0.09
  21   1    -0.00  -0.00  -0.00     0.01   0.03   0.02    -0.40  -0.23  -0.09
                     43                     44                     45
                        a                      a                      a 
 Frequencies --  1469.5939              1471.5712              1479.5709
 Red. masses --     3.2215                 2.0687                 9.0962
 Frc consts  --     0.0000                 0.0000                 0.0000
 IR Inten    --    88.3344                17.0686               208.9105
 Raman Activ --     0.0000                 0.0000                 0.0000
 Depolar     --     0.0000                 0.0000                 0.0000
 Atom AN      X      Y      Z        X      Y      Z        X      Y      Z
   1   6     0.02  -0.05  -0.00    -0.08   0.02   0.00     0.11  -0.14  -0.00
   2   6    -0.07   0.03   0.00     0.04   0.04  -0.00    -0.18   0.05   0.00
   3   6     0.15   0.06  -0.00    -0.04  -0.06   0.00     0.31   0.23  -0.00
   4   6     0.03  -0.23   0.00    -0.04   0.10  -0.00     0.08  -0.48   0.00
   5   6    -0.19  -0.01   0.00     0.10   0.05  -0.00    -0.40   0.05   0.00
   6   6     0.05   0.07  -0.00    -0.01  -0.08   0.00     0.12   0.19  -0.00
   7   8    -0.01   0.08  -0.00     0.01  -0.03   0.00    -0.03   0.14  -0.00
   8   1     0.00   0.03  -0.00    -0.00  -0.02   0.00     0.01   0.08  -0.00
   9   1     0.02  -0.05   0.00     0.05  -0.05  -0.00     0.05  -0.15   0.00
  10   1    -0.02  -0.01   0.00     0.06   0.01  -0.00    -0.08  -0.04   0.00
  11   8    -0.05   0.01   0.00     0.01  -0.04   0.00    -0.08  -0.04   0.00
  12   6    -0.01   0.05  -0.00     0.06  -0.19   0.00     0.02  -0.03  -0.00
  13   1     0.01  -0.11   0.08    -0.01   0.50  -0.34     0.01   0.16  -0.11
  14   1     0.04   0.05  -0.00    -0.19  -0.19   0.00    -0.08  -0.07   0.00
  15   1     0.01  -0.11  -0.08    -0.01   0.50   0.34     0.01   0.16   0.11
  16   1    -0.01  -0.02   0.00     0.05   0.07  -0.00    -0.12  -0.21   0.00
  17   8     0.06   0.06  -0.00    -0.04  -0.00   0.00     0.12  -0.00  -0.00
  18   6     0.07   0.19  -0.00     0.02   0.06  -0.00    -0.01  -0.04   0.00
  19   1    -0.19   0.19   0.00    -0.06   0.05   0.00     0.06  -0.05  -0.00
  20   1    -0.02  -0.48   0.33     0.01  -0.16   0.11    -0.02   0.17  -0.12
  21   1    -0.02  -0.48  -0.33     0.01  -0.16  -0.11    -0.02   0.17   0.12
                     46                     47                     48
                        a                      a                      a 
 Frequencies --  1575.9015              1589.7867              2939.1761
 Red. masses --    11.5837                11.6014                 1.9571
 Frc consts  --     0.0000                 0.0000                 0.0000
 IR Inten    --     2.6856               133.4295                47.4798
 Raman Activ --     0.0000                 0.0000                 0.0000
 Depolar     --     0.0000                 0.0000                 0.0000
 Atom AN      X      Y      Z        X      Y      Z        X      Y      Z
   1   6    -0.02  -0.23   0.00    -0.56  -0.00   0.00     0.00   0.00   0.00
   2   6    -0.16   0.47  -0.00     0.31  -0.13  -0.00    -0.00  -0.00   0.00
   3   6    -0.05  -0.46   0.00    -0.27  -0.12   0.00     0.00   0.00   0.00
   4   6    -0.00   0.18  -0.00     0.49  -0.02  -0.00     0.00  -0.00   0.00
   5   6     0.05  -0.42   0.00    -0.30   0.14   0.00    -0.00   0.00  -0.00
   6   6     0.17   0.45  -0.00     0.30   0.12  -0.00     0.00  -0.00  -0.00
   7   8     0.01   0.01  -0.00    -0.04  -0.01   0.00    -0.00   0.00  -0.00
   8   1    -0.01  -0.01   0.00     0.03   0.10  -0.00     0.00   0.00   0.00
   9   1     0.09  -0.10  -0.00     0.02   0.07  -0.00    -0.00  -0.00  -0.00
  10   1     0.01  -0.06  -0.00     0.13   0.00  -0.00    -0.00  -0.00  -0.00
  11   8    -0.02   0.05   0.00    -0.01   0.02   0.00     0.00  -0.00  -0.00
  12   6     0.00  -0.02   0.00     0.01  -0.01  -0.00    -0.00  -0.00  -0.00
  13   1    -0.00   0.00  -0.01    -0.00  -0.01   0.00     0.00   0.00   0.00
  14   1     0.02   0.01  -0.00     0.01   0.01   0.00     0.00  -0.00  -0.00
  15   1    -0.00   0.00   0.01    -0.00  -0.01  -0.00    -0.00  -0.00   0.00
  16   1    -0.08  -0.10   0.00     0.02  -0.07   0.00    -0.00  -0.00  -0.00
  17   8     0.02   0.04  -0.00     0.00  -0.02   0.00     0.00   0.00   0.01
  18   6    -0.00  -0.02   0.00     0.01   0.01  -0.00     0.00   0.00   0.29
  19   1    -0.02   0.01   0.00     0.01  -0.01  -0.00     0.00   0.00   0.05
  20   1     0.00   0.01  -0.01    -0.01   0.01  -0.01     0.07  -0.40  -0.54
  21   1     0.00   0.01   0.01    -0.01   0.01   0.01    -0.07   0.40  -0.54
                     49                     50                     51
                        a                      a                      a 
 Frequencies --  2950.0675              2952.1670              2962.4339
 Red. masses --     1.9571                 1.4374                 1.4386
 Frc consts  --     0.0000                 0.0000                 0.0000
 IR Inten    --    44.4663                50.2779                45.1695
 Raman Activ --     0.0000                 0.0000                 0.0000
 Depolar     --     0.0000                 0.0000                 0.0000
 Atom AN      X      Y      Z        X      Y      Z        X      Y      Z
   1   6     0.00  -0.00  -0.00     0.00  -0.00  -0.00    -0.00  -0.00   0.00
   2   6     0.00   0.00   0.00     0.00  -0.00   0.00    -0.00  -0.00   0.00
   3   6     0.00   0.00   0.00     0.00   0.00  -0.00    -0.00   0.00   0.00
   4   6    -0.00  -0.00  -0.00    -0.00  -0.00   0.00     0.00  -0.00   0.00
   5   6     0.00   0.00  -0.00     0.00   0.00  -0.00    -0.00   0.00  -0.00
   6   6     0.00   0.00  -0.00     0.00  -0.00  -0.00    -0.00  -0.00   0.00
   7   8     0.00   0.00   0.00     0.00   0.00   0.00     0.00   0.00  -0.00
   8   1    -0.00   0.00  -0.00    -0.00  -0.00   0.00    -0.00  -0.00   0.00
   9   1    -0.00  -0.00   0.00     0.00  -0.00   0.00     0.01   0.00  -0.00
  10   1     0.00   0.00  -0.00     0.00   0.00  -0.00    -0.00   0.00  -0.00
  11   8    -0.00  -0.00  -0.01    -0.00  -0.00   0.00     0.02   0.01  -0.00
  12   6    -0.00  -0.00  -0.29    -0.00  -0.00   0.00     0.02   0.19  -0.00
  13   1     0.07   0.40   0.54     0.00   0.01   0.01    -0.08  -0.36  -0.58
  14   1    -0.00  -0.00  -0.05     0.00  -0.00   0.00     0.01   0.01  -0.00
  15   1    -0.07  -0.40   0.54     0.00   0.01  -0.01    -0.08  -0.36   0.58
  16   1     0.00  -0.00   0.00    -0.01   0.00   0.00    -0.00   0.00  -0.00
  17   8    -0.00   0.00   0.00    -0.02   0.01   0.00    -0.00   0.00  -0.00
  18   6    -0.00   0.00  -0.00    -0.02   0.19  -0.00    -0.00   0.00   0.00
  19   1    -0.00  -0.00  -0.00    -0.01   0.01   0.00    -0.00  -0.00   0.00
  20   1    -0.00   0.00   0.00     0.08  -0.36  -0.59     0.00  -0.01  -0.01
  21   1     0.00  -0.00   0.00     0.08  -0.36   0.59     0.00  -0.01   0.01
                     52                     53                     54
                        a                      a                      a 
 Frequencies --  3034.1758              3035.1782              3098.0890
 Red. masses --     1.7026                 1.7065                 1.7904
 Frc consts  --     0.0000                 0.0000                 0.0000
 IR Inten    --    17.2803                15.3613                30.3235
 Raman Activ --     0.0000                 0.0000                 0.0000
 Depolar     --     0.0000                 0.0000                 0.0000
 Atom AN      X      Y      Z        X      Y      Z        X      Y      Z
   1   6     0.00  -0.00   0.00    -0.00  -0.00  -0.00    -0.00   0.26  -0.00
   2   6    -0.00  -0.00  -0.00     0.00   0.00  -0.00    -0.05  -0.03   0.00
   3   6     0.00  -0.00   0.00    -0.00   0.00  -0.00    -0.00  -0.00   0.00
   4   6     0.00  -0.00   0.00    -0.00  -0.00  -0.00     0.00   0.00  -0.00
   5   6     0.00  -0.00  -0.00    -0.00  -0.00   0.00     0.00  -0.00  -0.00
   6   6    -0.00   0.00   0.00     0.00   0.00  -0.00     0.04  -0.03  -0.00
   7   8    -0.00   0.00  -0.00     0.00   0.00   0.00    -0.00  -0.00  -0.00
   8   1     0.00  -0.00  -0.00    -0.00  -0.00   0.00     0.00  -0.00  -0.00
   9   1     0.00   0.00  -0.00    -0.01  -0.00   0.00     0.20   0.12  -0.00
  10   1     0.00   0.00   0.00    -0.00   0.00  -0.00     0.01  -0.91   0.00
  11   8    -0.00   0.00   0.00     0.01  -0.00  -0.00    -0.00   0.00   0.00
  12   6    -0.01   0.01   0.00     0.17  -0.19  -0.00     0.00  -0.00  -0.00
  13   1    -0.00   0.00   0.00     0.02  -0.03  -0.01     0.00   0.00   0.00
  14   1     0.04  -0.05  -0.00    -0.64   0.72   0.00    -0.00   0.00   0.00
  15   1    -0.00   0.00  -0.00     0.02  -0.03   0.01     0.00   0.00  -0.00
  16   1     0.01  -0.00  -0.00    -0.00   0.00   0.00    -0.18   0.11   0.00
  17   8    -0.01  -0.00   0.00    -0.00   0.00   0.00     0.00   0.00  -0.00
  18   6    -0.16  -0.19   0.00    -0.01  -0.01   0.00    -0.00  -0.00   0.00
  19   1     0.63   0.73  -0.00     0.04   0.05  -0.00     0.00   0.00  -0.00
  20   1    -0.02  -0.04  -0.01    -0.00  -0.00  -0.00    -0.00   0.00   0.00
  21   1    -0.02  -0.04   0.01    -0.00  -0.00   0.00    -0.00   0.00  -0.00
                     55                     56                     57
                        a                      a                      a 
 Frequencies --  3119.3139              3124.9084              3420.6892
 Red. masses --     1.8319                 1.8738                 1.8646
 Frc consts  --     0.0000                 0.0000                 0.0000
 IR Inten    --    49.7679                38.3777               203.5223
 Raman Activ --     0.0000                 0.0000                 0.0000
 Depolar     --     0.0000                 0.0000                 0.0000
 Atom AN      X      Y      Z        X      Y      Z        X      Y      Z
   1   6     0.00  -0.02   0.00    -0.00   0.10  -0.00     0.00  -0.00  -0.00
   2   6    -0.19  -0.12   0.00     0.13   0.08  -0.00     0.00   0.00   0.00
   3   6    -0.01   0.00   0.00     0.01  -0.00  -0.00     0.00  -0.00  -0.00
   4   6     0.00   0.00  -0.00     0.00  -0.00   0.00    -0.00   0.01  -0.00
   5   6    -0.00  -0.00   0.00    -0.01  -0.00   0.00    -0.00  -0.00   0.00
   6   6    -0.14   0.08   0.00    -0.19   0.11   0.00    -0.00   0.00   0.00
   7   8    -0.00  -0.00   0.00     0.00   0.00  -0.00    -0.23   0.07   0.00
   8   1     0.00   0.00  -0.00    -0.00   0.00   0.00     0.91  -0.33  -0.00
   9   1     0.66   0.41  -0.00    -0.44  -0.27   0.00    -0.00  -0.00   0.00
  10   1    -0.00   0.06  -0.00     0.00  -0.30   0.00     0.00  -0.00   0.00
  11   8    -0.00  -0.00   0.00    -0.00   0.00   0.00     0.00   0.00  -0.00
  12   6     0.00  -0.00   0.00     0.00   0.00  -0.00    -0.00   0.00   0.00
  13   1     0.00   0.00   0.00    -0.00  -0.00  -0.00    -0.00  -0.00  -0.00
  14   1    -0.00   0.00   0.00     0.00  -0.00   0.00    -0.00  -0.00   0.00
  15   1     0.00   0.00  -0.00    -0.00  -0.00   0.00    -0.00  -0.00   0.00
  16   1     0.48  -0.28  -0.00     0.65  -0.38  -0.00     0.00  -0.00   0.00
  17   8    -0.00   0.00   0.00    -0.00   0.00  -0.00     0.00   0.00  -0.00
  18   6     0.00   0.00   0.00    -0.00   0.00  -0.00    -0.00   0.00   0.00
  19   1    -0.00  -0.00   0.00    -0.00  -0.00   0.00    -0.00  -0.00   0.00
  20   1     0.00  -0.00  -0.00     0.00  -0.00  -0.00    -0.00  -0.00  -0.00
  21   1     0.00  -0.00   0.00     0.00  -0.00   0.00    -0.00  -0.00   0.00
