      -----------------------------------------------------------      
     |                   =====================                   |     
     |                           x T B                           |     
     |                   =====================                   |     
     |                         S. Grimme                         |     
     |          Mulliken Center for Theoretical Chemistry        |     
     |                    University of Bonn                     |     
      -----------------------------------------------------------      

   * xtb version 6.4.1 (afa7bdf) compiled by 'ehlert@majestix' on 2021-06-10

   xtb is free software: you can redistribute it and/or modify it under
   the terms of the GNU Lesser General Public License as published by
   the Free Software Foundation, either version 3 of the License, or
   (at your option) any later version.
   
   xtb is distributed in the hope that it will be useful,
   but WITHOUT ANY WARRANTY; without even the implied warranty of
   MERCHANTABILITY or FITNESS FOR A PARTICULAR PURPOSE.  See the
   GNU Lesser General Public License for more details.
   
   Cite this work as:
   * C. Bannwarth, E. Caldeweyher, S. Ehlert, A. Hansen, P. Pracht,
     J. Seibert, S. Spicher, S. Grimme, WIREs Comput. Mol. Sci., 2020, 11,
     e01493. DOI: 10.1002/wcms.1493
   
   for GFN2-xTB:
   * C. Bannwarth, S. Ehlert and S. Grimme., J. Chem. Theory Comput., 2019,
     15, 1652-1671. DOI: 10.1021/acs.jctc.8b01176
   for GFN1-xTB:
   * S. Grimme, C. Bannwarth, P. Shushkov, J. Chem. Theory Comput., 2017,
     13, 1989-2009. DOI: 10.1021/acs.jctc.7b00118
   for GFN0-xTB:
   * P. Pracht, E. Caldeweyher, S. Ehlert, S. Grimme, ChemRxiv, 2019, preprint.
     DOI: 10.26434/chemrxiv.8326202.v1
   for GFN-FF:
   * S. Spicher and S. Grimme, Angew. Chem. Int. Ed., 2020, 59, 15665-15673.
     DOI: 10.1002/anie.202004239
   
   for DFT-D4:
   * E. Caldeweyher, C. Bannwarth and S. Grimme, J. Chem. Phys., 2017,
     147, 034112. DOI: 10.1063/1.4993215
   * E. Caldeweyher, S. Ehlert, A. Hansen, H. Neugebauer, S. Spicher,
     C. Bannwarth and S. Grimme, J. Chem. Phys., 2019, 150, 154122.
     DOI: 10.1063/1.5090222
   * E. Caldeweyher, J.-M. Mewes, S. Ehlert and S. Grimme, Phys. Chem. Chem. Phys.
     2020, 22, 8499-8512. DOI: 10.1039/D0CP00502A
   
   for sTDA-xTB:
   * S. Grimme and C. Bannwarth, J. Chem. Phys., 2016, 145, 054103.
     DOI: 10.1063/1.4959605
   
   in the mass-spec context:
   * V. Asgeirsson, C. Bauer and S. Grimme, Chem. Sci., 2017, 8, 4879.
     DOI: 10.1039/c7sc00601b
   * J. Koopman and S. Grimme, ACS Omega 2019, 4, 12, 15120-15133.
     DOI: 10.1021/acsomega.9b02011
   
   for metadynamics refer to:
   * S. Grimme, J. Chem. Theory Comput., 2019, 155, 2847-2862
     DOI: 10.1021/acs.jctc.9b00143
   
   for SPH calculations refer to:
   * S. Spicher and S. Grimme, J. Chem. Theory Comput., 2021, 17, 1701-1714
     DOI: 10.1021/acs.jctc.0c01306
   
   with help from (in alphabetical order)
   P. Atkinson, C. Bannwarth, F. Bohle, G. Brandenburg, E. Caldeweyher
   M. Checinski, S. Dohm, S. Ehlert, S. Ehrlich, I. Gerasimov, J. Koopman
   C. Lavigne, S. Lehtola, F. März, M. Müller, F. Musil, H. Neugebauer
   J. Pisarek, C. Plett, P. Pracht, J. Seibert, P. Shushkov, S. Spicher
   M. Stahn, M. Steiner, T. Strunk, J. Stückrath, T. Rose, and J. Unsleber
   
 * started run on 2021/11/15 at 09:36:13.496     

           -------------------------------------------------
          |                Calculation Setup                |
           -------------------------------------------------

          program call               : xtb 14_2,4-dinitrophenol.xyz --gfn2 --chrg 0 --uhf 0 --alpb water --ohess -P 1
          coordinate file            : 14_2,4-dinitrophenol.xyz
          omp threads                :                     1
          number of atoms            :                    17
          number of electrons        :                    68
          charge                     :                     0
          spin                       :                   0.0
          first test random number   :      0.89237660628371

   ID    Z sym.   atoms
    1    6 C      1-6
    2    1 H      7, 8, 10, 14
    3    8 O      9, 12, 13, 16, 17
    4    7 N      11, 15

           -------------------------------------------------
          |                 G F N 2 - x T B                 |
           -------------------------------------------------

        Reference                      10.1021/acs.jctc.8b01176
      * Hamiltonian:
        H0-scaling (s, p, d)           1.850000    2.230000    2.230000
        zeta-weighting                 0.500000
      * Dispersion:
        s8                             2.700000
        a1                             0.520000
        a2                             5.000000
        s9                             5.000000
      * Repulsion:
        kExp                           1.500000    1.000000
        rExp                           1.000000
      * Coulomb:
        alpha                          2.000000
        third order                    shell-resolved
        anisotropic                    true
        a3                             3.000000
        a5                             4.000000
        cn-shift                       1.200000
        cn-exp                         4.000000
        max-rad                        5.000000

      * Solvation model:               ALPB
        Solvent                        water
        Parameter file                 internal GFN2-xTB/ALPB
        Dielectric constant                8.0200E+01
        Reference state                gsolv [1 M gas/solution]
        Free energy shift                  1.0808E-03 Eh       6.7819E-01 kcal/mol
        Temperature                        2.9815E+02 K
        Density                            1.0000E+00 kg/L
        Solvent mass                       1.8000E+01 g/mol
        Interaction kernel             P16
        Born radius scaling (c1)           1.4744E+00
        Born radii integrator          GBOBC
        Born offset                        0.0000E+00 a0       0.0000E+00 AA
        H-bond correction              true
        Ion screening                  false
        Surface tension                    1.0000E-05 Eh       1.5569E+01 dyn/cm
        Grid points                               230 per atom

          ...................................................
          :                      SETUP                      :
          :.................................................:
          :  # basis functions                  56          :
          :  # atomic orbitals                  56          :
          :  # shells                           30          :
          :  # electrons                        68          :
          :  max. iterations                   250          :
          :  Hamiltonian                  GFN2-xTB          :
          :  restarted?                      false          :
          :  GBSA solvation                   true          :
          :  PC potential                    false          :
          :  electronic temp.          300.0000000     K    :
          :  accuracy                    1.0000000          :
          :  -> integral cutoff          0.2500000E+02      :
          :  -> integral neglect         0.1000000E-07      :
          :  -> SCF convergence          0.1000000E-05 Eh   :
          :  -> wf. convergence          0.1000000E-03 e    :
          :  Broyden damping             0.4000000          :
          ...................................................

 iter      E             dE          RMSdq      gap      omega  full diag
   1    -41.0302376 -0.410302E+02  0.728E+00    3.26       0.0  T
   2    -41.2425378 -0.212300E+00  0.315E+00    2.62       1.0  T
   3    -41.2470323 -0.449440E-02  0.161E+00    2.50       1.0  T
   4    -41.2459139  0.111837E-02  0.509E-01    2.43       1.0  T
   5    -41.2483633 -0.244937E-02  0.986E-02    2.41       1.0  T
   6    -41.2483694 -0.611330E-05  0.489E-02    2.42       1.0  T
   7    -41.2483722 -0.287506E-05  0.151E-02    2.42       1.6  T
   8    -41.2483743 -0.204380E-05  0.583E-03    2.42       4.2  T
   9    -41.2483744 -0.625873E-07  0.256E-03    2.42       9.5  T
  10    -41.2483744 -0.137093E-07  0.915E-04    2.42      26.5  T
  11    -41.2483744 -0.310444E-08  0.452E-04    2.42      53.7  T

   *** convergence criteria satisfied after 11 iterations ***

         #    Occupation            Energy/Eh            Energy/eV
      -------------------------------------------------------------
         1        2.0000           -0.7954486             -21.6453
       ...           ...                  ...                  ...
        28        2.0000           -0.4892494             -13.3132
        29        2.0000           -0.4780205             -13.0076
        30        2.0000           -0.4691963             -12.7675
        31        2.0000           -0.4662653             -12.6877
        32        2.0000           -0.4595593             -12.5052
        33        2.0000           -0.4581118             -12.4659
        34        2.0000           -0.4390467             -11.9471 (HOMO)
        35                         -0.3501943              -9.5293 (LUMO)
        36                         -0.3401619              -9.2563
        37                         -0.2651764              -7.2158
        38                         -0.2487180              -6.7680
        39                         -0.1374093              -3.7391
       ...                                ...                  ...
        56                          0.5998678              16.3232
      -------------------------------------------------------------
                  HL-Gap            0.0888525 Eh            2.4178 eV
             Fermi-level           -0.3946205 Eh          -10.7382 eV

 SCC (total)                   0 d,  0 h,  0 min,  0.013 sec
 SCC setup                      ...        0 min,  0.000 sec (  3.227%)
 Dispersion                     ...        0 min,  0.000 sec (  0.922%)
 classical contributions        ...        0 min,  0.000 sec (  0.163%)
 integral evaluation            ...        0 min,  0.002 sec ( 16.263%)
 iterations                     ...        0 min,  0.006 sec ( 45.918%)
 molecular gradient             ...        0 min,  0.004 sec ( 32.093%)
 printout                       ...        0 min,  0.000 sec (  1.264%)

         :::::::::::::::::::::::::::::::::::::::::::::::::::::
         ::                     SUMMARY                     ::
         :::::::::::::::::::::::::::::::::::::::::::::::::::::
         :: total energy             -40.889202846782 Eh    ::
         :: total w/o Gsasa/hb       -40.890283854335 Eh    ::
         :: gradient norm              0.048174365327 Eh/a0 ::
         :: HOMO-LUMO gap              2.417798853051 eV    ::
         ::.................................................::
         :: SCC energy               -41.248374368876 Eh    ::
         :: -> isotropic ES            0.141937182406 Eh    ::
         :: -> anisotropic ES          0.008001959918 Eh    ::
         :: -> anisotropic XC         -0.001009869548 Eh    ::
         :: -> dispersion             -0.015793419155 Eh    ::
         :: -> Gsolv                  -0.023158906900 Eh    ::
         ::    -> Gelec               -0.024239914453 Eh    ::
         ::    -> Gsasa                0.007819745263 Eh    ::
         ::    -> Ghb                 -0.007819497407 Eh    ::
         ::    -> Gshift               0.001080759698 Eh    ::
         :: repulsion energy           0.359135945299 Eh    ::
         :: add. restraining           0.000000000000 Eh    ::
         :: total charge              -0.000000000000 e     ::
         :::::::::::::::::::::::::::::::::::::::::::::::::::::

      ----------------------------------------------------------- 
     |                   =====================                   |
     |                        A N C O P T                        |
     |                   =====================                   |
     |               Approximate Normal Coordinate               |
     |                Rational Function Optimizer                |
      ----------------------------------------------------------- 

          ...................................................
          :                      SETUP                      :
          :.................................................:
          :   optimization level            normal          :
          :   max. optcycles                   200          :
          :   ANC micro-cycles                  20          :
          :   degrees of freedom                45          :
          :.................................................:
          :   RF solver                   davidson          :
          :   write xtbopt.log                true          :
          :   linear?                        false          :
          :   energy convergence         0.5000000E-05 Eh   :
          :   grad. convergence          0.1000000E-02 Eh/α :
          :   maximium RF displ.         1.0000000          :
          :   Hlow (freq-cutoff)         0.1000000E-01      :
          :   Hmax (freq-cutoff)         5.0000000          :
          :   S6 in model hess.         20.0000000          :
          ...................................................

generating ANC from model Hessian ...
Using Lindh-Hessian (1995)
 Shifting diagonal of input Hessian by   5.724683802223028E-003
 Lowest  eigenvalues of input Hessian
    0.000000    0.000000    0.000000    0.000000    0.000000    0.000000
    0.010000    0.011831    0.019650    0.021947    0.022330    0.023976
    0.028728    0.046151    0.049486    0.061697    0.067502    0.076618
 Highest eigenvalues
    1.918061    2.022191    2.110591    2.175717    2.492230    2.516284
 

........................................................................
.............................. CYCLE    1 ..............................
........................................................................
   1    -41.2483744 -0.412484E+02  0.156E-04    2.42       0.0  T
   2    -41.2483744 -0.480895E-10  0.103E-04    2.42     236.4  T
   3    -41.2483744 -0.842704E-11  0.604E-05    2.42     401.5  T
     SCC iter.                  ...        0 min,  0.002 sec
     gradient                   ...        0 min,  0.004 sec
 * total energy  :   -40.8892028 Eh     change       -0.1109399E-08 Eh
   gradient norm :     0.0481769 Eh/α   predicted     0.0000000E+00 (-100.00%)
   displ. norm   :     0.1067393 α      lambda       -0.2854396E-02
   maximum displ.:     0.0499023 α      in ANC's #13, #8, #19, ...

........................................................................
.............................. CYCLE    2 ..............................
........................................................................
   1    -41.2594932 -0.412595E+02  0.151E-01    2.50       0.0  T
   2    -41.2596089 -0.115775E-03  0.728E-02    2.49       1.0  T
   3    -41.2596148 -0.582959E-05  0.458E-02    2.49       1.0  T
   4    -41.2596161 -0.137158E-05  0.171E-02    2.49       1.4  T
   5    -41.2596181 -0.201116E-05  0.443E-03    2.49       5.5  T
   6    -41.2596182 -0.224664E-07  0.246E-03    2.49       9.9  T
   7    -41.2596182 -0.140202E-07  0.833E-04    2.49      29.1  T
   8    -41.2596182 -0.444474E-08  0.281E-04    2.49      86.2  T
     SCC iter.                  ...        0 min,  0.004 sec
     gradient                   ...        0 min,  0.004 sec
 * total energy  :   -40.8912030 Eh     change       -0.2000134E-02 Eh
   gradient norm :     0.0209161 Eh/α   predicted    -0.1443462E-02 ( -27.83%)
   displ. norm   :     0.0888392 α      lambda       -0.9568629E-03
   maximum displ.:     0.0482218 α      in ANC's #11, #13, #19, ...

........................................................................
.............................. CYCLE    3 ..............................
........................................................................
   1    -41.2649447 -0.412649E+02  0.114E-01    2.52       0.0  T
   2    -41.2650023 -0.576565E-04  0.541E-02    2.53       1.0  T
   3    -41.2650077 -0.539103E-05  0.341E-02    2.53       1.0  T
   4    -41.2650101 -0.237947E-05  0.116E-02    2.53       2.1  T
   5    -41.2650106 -0.527217E-06  0.304E-03    2.53       8.0  T
   6    -41.2650106 -0.309863E-07  0.179E-03    2.53      13.6  T
   7    -41.2650106 -0.706566E-08  0.738E-04    2.53      32.9  T
   8    -41.2650106 -0.192691E-08  0.215E-04    2.53     112.7  T
     SCC iter.                  ...        0 min,  0.004 sec
     gradient                   ...        0 min,  0.004 sec
 * total energy  :   -40.8917239 Eh     change       -0.5208737E-03 Eh
   gradient norm :     0.0091823 Eh/α   predicted    -0.4822077E-03 (  -7.42%)
   displ. norm   :     0.0268263 α      lambda       -0.9774244E-04
   maximum displ.:     0.0190809 α      in ANC's #11, #13, #26, ...

........................................................................
.............................. CYCLE    4 ..............................
........................................................................
   1    -41.2647029 -0.412647E+02  0.280E-02    2.52       0.0  T
   2    -41.2647066 -0.362042E-05  0.145E-02    2.53       1.7  T
   3    -41.2647071 -0.538028E-06  0.852E-03    2.53       2.8  T
   4    -41.2647073 -0.218104E-06  0.268E-03    2.53       9.1  T
   5    -41.2647073 -0.182715E-07  0.858E-04    2.53      28.3  T
   6    -41.2647073 -0.383440E-08  0.487E-04    2.53      49.8  T
     SCC iter.                  ...        0 min,  0.003 sec
     gradient                   ...        0 min,  0.004 sec
 * total energy  :   -40.8917990 Eh     change       -0.7515464E-04 Eh
   gradient norm :     0.0056984 Eh/α   predicted    -0.4890722E-04 ( -34.92%)
   displ. norm   :     0.0390077 α      lambda       -0.9160941E-04
   maximum displ.:     0.0267004 α      in ANC's #11, #13, #14, ...

........................................................................
.............................. CYCLE    5 ..............................
........................................................................
   1    -41.2639598 -0.412640E+02  0.332E-02    2.51       0.0  T
   2    -41.2639654 -0.553411E-05  0.177E-02    2.52       1.4  T
   3    -41.2639660 -0.634205E-06  0.105E-02    2.53       2.3  T
   4    -41.2639663 -0.296643E-06  0.381E-03    2.53       6.4  T
   5    -41.2639663 -0.471933E-07  0.117E-03    2.53      20.7  T
   6    -41.2639664 -0.535930E-08  0.693E-04    2.53      35.0  T
   7    -41.2639664 -0.999393E-09  0.301E-04    2.53      80.6  T
     SCC iter.                  ...        0 min,  0.004 sec
     gradient                   ...        0 min,  0.004 sec
 * total energy  :   -40.8918410 Eh     change       -0.4201763E-04 Eh
   gradient norm :     0.0029833 Eh/α   predicted    -0.4587398E-04 (   9.18%)
   displ. norm   :     0.0192772 α      lambda       -0.2864448E-04
   maximum displ.:     0.0082104 α      in ANC's #9, #11, #10, ...

........................................................................
.............................. CYCLE    6 ..............................
........................................................................
   1    -41.2639205 -0.412639E+02  0.137E-02    2.53       0.0  T
   2    -41.2639207 -0.162271E-06  0.792E-03    2.53       3.1  T
   3    -41.2639207 -0.210848E-08  0.214E-03    2.53      11.3  T
   4    -41.2639207 -0.253442E-07  0.829E-04    2.53      29.3  T
   5    -41.2639207 -0.524361E-08  0.394E-04    2.53      61.6  T
     SCC iter.                  ...        0 min,  0.004 sec
     gradient                   ...        0 min,  0.007 sec
 * total energy  :   -40.8918434 Eh     change       -0.2393391E-05 Eh
   gradient norm :     0.0029880 Eh/α   predicted    -0.1432830E-04 ( 498.66%)
   displ. norm   :     0.0084966 α      lambda       -0.1495717E-04
   maximum displ.:     0.0041071 α      in ANC's #9, #10, #16, ...

........................................................................
.............................. CYCLE    7 ..............................
........................................................................
   1    -41.2641819 -0.412642E+02  0.890E-03    2.53       0.0  T
   2    -41.2641822 -0.227378E-06  0.490E-03    2.53       4.9  T
   3    -41.2641822 -0.904326E-08  0.256E-03    2.53       9.5  T
   4    -41.2641822 -0.279955E-07  0.717E-04    2.53      33.8  T
   5    -41.2641822 -0.217356E-08  0.236E-04    2.53     102.6  T
     SCC iter.                  ...        0 min,  0.004 sec
     gradient                   ...        0 min,  0.004 sec
 * total energy  :   -40.8918519 Eh     change       -0.8485142E-05 Eh
   gradient norm :     0.0012606 Eh/α   predicted    -0.7478296E-05 ( -11.87%)
   displ. norm   :     0.0050671 α      lambda       -0.1715879E-05
   maximum displ.:     0.0027079 α      in ANC's #13, #11, #16, ...

........................................................................
.............................. CYCLE    8 ..............................
........................................................................
   1    -41.2643822 -0.412644E+02  0.563E-03    2.53       0.0  T
   2    -41.2643823 -0.871841E-07  0.296E-03    2.53       8.2  T
   3    -41.2643823 -0.611946E-08  0.167E-03    2.53      14.5  T
   4    -41.2643823 -0.112609E-07  0.431E-04    2.53      56.2  T
   5    -41.2643823 -0.479609E-09  0.161E-04    2.53     150.6  T
     SCC iter.                  ...        0 min,  0.003 sec
     gradient                   ...        0 min,  0.004 sec
 * total energy  :   -40.8918530 Eh     change       -0.1119431E-05 Eh
   gradient norm :     0.0005302 Eh/α   predicted    -0.8585919E-06 ( -23.30%)
   displ. norm   :     0.0069461 α      lambda       -0.1356387E-05
   maximum displ.:     0.0032132 α      in ANC's #11, #13, #12, ...

   *** GEOMETRY OPTIMIZATION CONVERGED AFTER 8 ITERATIONS ***

------------------------------------------------------------------------
 total energy gain   :        -0.0026502 Eh       -1.6630 kcal/mol
 total RMSD          :         0.0585277 a0        0.0310 Å
 total power (kW/mol):        -0.8697557 (step)  -78.2180 (real)
------------------------------------------------------------------------

 ANCopt (total)                0 d,  0 h,  0 min,  0.089 sec
 optimizer setup                ...        0 min,  0.000 sec (  0.181%)
 model hessian                  ...        0 min,  0.001 sec (  1.567%)
 ANC generation                 ...        0 min,  0.000 sec (  0.332%)
 coordinate transformation      ...        0 min,  0.000 sec (  0.064%)
 single point calculation       ...        0 min,  0.084 sec ( 94.739%)
 optimization log               ...        0 min,  0.001 sec (  1.605%)
 hessian update                 ...        0 min,  0.000 sec (  0.059%)
 rational function              ...        0 min,  0.001 sec (  0.961%)

================
 final structure:
================
17
 xtb: 6.4.1 (afa7bdf)
C         1.39372566393007    0.13986789724238   -0.00003451584154
C         0.30355703928805   -0.70747224837084   -0.00004414403878
C        -0.98543427917238   -0.17899190437161   -0.00015471575011
C        -1.19053169493331    1.22713982097134    0.00004434551807
C        -0.04806743101327    2.05561236752780    0.00014515559018
C         1.21578007140182    1.53308535368576    0.00011599339563
H        -0.21489915357963    3.12024587257413    0.00021744021489
H         2.08752746250679    2.16880826666755    0.00015633173240
O        -2.36097369374655    1.81437241315456    0.00005267065419
H        -3.10720919777700    1.16674227242587    0.00002841449342
N         2.71044802097458   -0.40551519031624   -0.00035886306238
O         2.83451271257560   -1.61842515472618    0.00046006590321
O         3.65230380616587    0.36771829503116    0.00018857689642
H         0.44105313122229   -1.77954244202820   -0.00017444551690
N        -2.07251627459109   -1.09095817948802   -0.00068411400521
O        -3.21297656459277   -0.63431369863149    0.00018318576340
O        -1.84212761865908   -2.28404474134795    0.00010161805312
 
 Bond Distances (Angstroems)
 ---------------------------
C1-C2=1.3807         C1-C6=1.4045         C1-N11=1.4252        C2-C1=1.3807         C2-C3=1.3931         C2-H14=1.0809        
C3-C2=1.3931         C3-C4=1.4210         C3-N15=1.4190        C4-C3=1.4210         C4-C5=1.4112         C4-O9=1.3095         
C5-C4=1.4112         C5-C6=1.3676         C5-H7=1.0776         C6-C1=1.4045         C6-C5=1.3676         C6-H8=1.0789         
H7-C5=1.0776         H8-C6=1.0789         O9-C4=1.3095         O9-H10=0.9881        H10-O9=0.9881        N11-C1=1.4252        
N11-O12=1.2192       N11-O13=1.2186       O12-N11=1.2192       O13-N11=1.2186       H14-C2=1.0809        N15-C3=1.4190        
N15-O16=1.2285       N15-O17=1.2151       O16-N15=1.2285       O17-N15=1.2151       
 C  H  Rav=1.0791 sigma=0.0013  Rmin=1.0776  Rmax=1.0809     3
 C  C  Rav=1.3964 sigma=0.0182  Rmin=1.3676  Rmax=1.4210     6
 N  C  Rav=1.4221 sigma=0.0031  Rmin=1.4190  Rmax=1.4252     2
 O  H  Rav=0.9881 sigma=0.0000  Rmin=0.9881  Rmax=0.9881     1
 O  C  Rav=1.3095 sigma=0.0000  Rmin=1.3095  Rmax=1.3095     1
 O  N  Rav=1.2204 sigma=0.0049  Rmin=1.2151  Rmax=1.2285     4
 
 selected bond angles (degree)
 --------------------
C6-C1-C2=120.58                N11-C1-C2=119.64               N11-C1-C6=119.78               C3-C2-C1=119.85                
H14-C2-C1=120.55               H14-C2-C3=119.60               C4-C3-C2=120.59                N15-C3-C2=117.71               
N15-C3-C4=121.70               C5-C4-C3=117.65                O9-C4-C3=124.94                O9-C4-C5=117.41                
C6-C5-C4=121.59                H7-C5-C4=117.04                H7-C5-C6=121.37                C5-C6-C1=119.74                
H8-C6-C1=118.82                H8-C6-C5=121.44                H10-O9-C4=112.40               
 
 selected dihedral angles (degree)
 ---------------------------------
C3-C2-C1-C6=  0.00            C3-C2-C1-N11=180.02           H14-C2-C1-C6=180.00           H14-C2-C1-N11=  0.00          
C4-C3-C2-C1=  0.00            C4-C3-C2-H14=180.00           N15-C3-C2-C1=179.98           N15-C3-C2-H14=  0.00          
C5-C4-C3-C2=  0.00            C5-C4-C3-N15=180.02           O9-C4-C3-C2=180.00            O9-C4-C3-N15=  0.00           
C6-C5-C4-C3=  0.00            C6-C5-C4-O9=180.00            H7-C5-C4-C3=180.00            H7-C5-C4-O9=  0.00            
C5-C6-C1-C2=  0.00            C5-C6-C1-N11=179.99           H8-C6-C1-C2=180.00            H8-C6-C1-N11=  0.00           
C1-C6-C5-C4=  0.00            C1-C6-C5-H7=180.00            H8-C6-C5-C4=180.00            H8-C6-C5-H7=  0.00            
H10-O9-C4-C3=  0.00           H10-O9-C4-C5=180.00           
           -------------------------------------------------
          |                Final Singlepoint                |
           -------------------------------------------------

          ...................................................
          :                      SETUP                      :
          :.................................................:
          :  # basis functions                  56          :
          :  # atomic orbitals                  56          :
          :  # shells                           30          :
          :  # electrons                        68          :
          :  max. iterations                   250          :
          :  Hamiltonian                  GFN2-xTB          :
          :  restarted?                      false          :
          :  GBSA solvation                   true          :
          :  PC potential                    false          :
          :  electronic temp.          300.0000000     K    :
          :  accuracy                    1.0000000          :
          :  -> integral cutoff          0.2500000E+02      :
          :  -> integral neglect         0.1000000E-07      :
          :  -> SCF convergence          0.1000000E-05 Eh   :
          :  -> wf. convergence          0.1000000E-03 e    :
          :  Broyden damping             0.4000000          :
          ...................................................

 iter      E             dE          RMSdq      gap      omega  full diag
   1    -41.2643823 -0.412644E+02  0.103E-04    2.53       0.0  T
   2    -41.2643823 -0.216644E-10  0.688E-05    2.53     352.4  T
   3    -41.2643823 -0.436273E-11  0.462E-05    2.53     524.8  T

   *** convergence criteria satisfied after 3 iterations ***

         #    Occupation            Energy/Eh            Energy/eV
      -------------------------------------------------------------
         1        2.0000           -0.7961120             -21.6633
       ...           ...                  ...                  ...
        28        2.0000           -0.4870368             -13.2529
        29        2.0000           -0.4748761             -12.9220
        30        2.0000           -0.4668655             -12.7041
        31        2.0000           -0.4652767             -12.6608
        32        2.0000           -0.4577741             -12.4567
        33        2.0000           -0.4566099             -12.4250
        34        2.0000           -0.4378014             -11.9132 (HOMO)
        35                         -0.3448076              -9.3827 (LUMO)
        36                         -0.3362683              -9.1503
        37                         -0.2609815              -7.1017
        38                         -0.2428102              -6.6072
        39                         -0.1338837              -3.6432
       ...                                ...                  ...
        56                          0.6184484              16.8288
      -------------------------------------------------------------
                  HL-Gap            0.0929938 Eh            2.5305 eV
             Fermi-level           -0.3913045 Eh          -10.6479 eV

 SCC (total)                   0 d,  0 h,  0 min,  0.009 sec
 SCC setup                      ...        0 min,  0.000 sec (  3.521%)
 Dispersion                     ...        0 min,  0.000 sec (  0.440%)
 classical contributions        ...        0 min,  0.000 sec (  0.148%)
 integral evaluation            ...        0 min,  0.002 sec ( 21.970%)
 iterations                     ...        0 min,  0.002 sec ( 24.231%)
 molecular gradient             ...        0 min,  0.004 sec ( 47.684%)
 printout                       ...        0 min,  0.000 sec (  1.775%)

         :::::::::::::::::::::::::::::::::::::::::::::::::::::
         ::                     SUMMARY                     ::
         :::::::::::::::::::::::::::::::::::::::::::::::::::::
         :: total energy             -40.891853026448 Eh    ::
         :: total w/o Gsasa/hb       -40.892172711557 Eh    ::
         :: gradient norm              0.000530918304 Eh/a0 ::
         :: HOMO-LUMO gap              2.530491020208 eV    ::
         ::.................................................::
         :: SCC energy               -41.264382326289 Eh    ::
         :: -> isotropic ES            0.143830969814 Eh    ::
         :: -> anisotropic ES          0.009447489298 Eh    ::
         :: -> anisotropic XC         -0.003325201331 Eh    ::
         :: -> dispersion             -0.015878955485 Eh    ::
         :: -> Gsolv                  -0.024418428520 Eh    ::
         ::    -> Gelec               -0.024738113630 Eh    ::
         ::    -> Gsasa                0.007688000887 Eh    ::
         ::    -> Ghb                 -0.008449075475 Eh    ::
         ::    -> Gshift               0.001080759698 Eh    ::
         :: repulsion energy           0.372492449798 Eh    ::
         :: add. restraining           0.000000000000 Eh    ::
         :: total charge               0.000000000000 e     ::
         :::::::::::::::::::::::::::::::::::::::::::::::::::::

           ------------------------------------------------- 
          |                Numerical Hessian                |
           ------------------------------------------------- 
step length          :   0.00500
SCC accuracy         :   0.30000
Hessian scale factor :   1.00000
frozen atoms in %    :   0.00000    0
RMS gradient         :   0.00053
estimated CPU  time      0.02 min
estimated wall time      0.02 min

writing file <hessian>.

 projected vibrational frequencies (cm⁻¹)
eigval :       -0.00    -0.00     0.00     0.00     0.00     0.00
eigval :       35.35    58.92   107.96   142.31   158.76   286.99
eigval :      296.72   338.35   362.87   401.58   416.46   490.37
eigval :      524.89   584.72   620.21   653.85   695.79   704.40
eigval :      730.00   751.17   791.85   825.05   854.55   895.64
eigval :      926.42   932.89  1066.35  1085.40  1133.43  1169.80
eigval :     1216.40  1252.20  1283.00  1332.85  1363.37  1412.99
eigval :     1456.71  1531.85  1557.22  1572.81  1583.93  3091.95
eigval :     3093.43  3107.74  3126.41
           -------------------------------------------------
          |                Property Printout                |
           -------------------------------------------------

    * Orbital Energies and Occupations

         #    Occupation            Energy/Eh            Energy/eV
      -------------------------------------------------------------
         1        2.0000           -0.7961119             -21.6633
       ...           ...                  ...                  ...
        22        2.0000           -0.5282770             -14.3751
        23        2.0000           -0.5211131             -14.1802
        24        2.0000           -0.5168707             -14.0648
        25        2.0000           -0.5100879             -13.8802
        26        2.0000           -0.4972933             -13.5320
        27        2.0000           -0.4885517             -13.2942
        28        2.0000           -0.4870368             -13.2529
        29        2.0000           -0.4748762             -12.9220
        30        2.0000           -0.4668656             -12.7041
        31        2.0000           -0.4652768             -12.6608
        32        2.0000           -0.4577741             -12.4567
        33        2.0000           -0.4566100             -12.4250
        34        2.0000           -0.4378014             -11.9132 (HOMO)
        35                         -0.3448078              -9.3827 (LUMO)
        36                         -0.3362684              -9.1503
        37                         -0.2609816              -7.1017
        38                         -0.2428102              -6.6072
        39                         -0.1338837              -3.6432
        40                         -0.0354241              -0.9639
        41                          0.0008822               0.0240
        42                          0.0657315               1.7886
        43                          0.1015907               2.7644
        44                          0.1352633               3.6807
        45                          0.1402459               3.8163
       ...                                ...                  ...
        56                          0.6184483              16.8288
      -------------------------------------------------------------
                  HL-Gap            0.0929937 Eh            2.5305 eV
             Fermi-level           -0.3913046 Eh          -10.6479 eV

     #   Z          covCN         q      C6AA      α(0)
     1   6 C        2.914     0.012    27.748     8.638
     2   6 C        2.918    -0.008    28.221     8.711
     3   6 C        2.908    -0.019    28.474     8.750
     4   6 C        2.837     0.199    23.767     7.989
     5   6 C        2.918    -0.047    29.178     8.858
     6   6 C        2.914    -0.008    28.231     8.713
     7   1 H        0.926     0.130     1.538     1.939
     8   1 H        0.926     0.126     1.568     1.958
     9   8 O        1.659    -0.343    19.779     6.004
    10   1 H        0.802     0.411     0.465     1.071
    11   7 N        2.761     0.580    13.162     5.388
    12   8 O        0.930    -0.438    22.424     6.351
    13   8 O        0.930    -0.430    22.254     6.327
    14   1 H        0.926     0.125     1.570     1.959
    15   7 N        2.761     0.580    13.158     5.387
    16   8 O        0.930    -0.443    22.526     6.365
    17   8 O        0.930    -0.426    22.176     6.316

 Mol. C6AA /au·bohr⁶  :       4398.048850
 Mol. C8AA /au·bohr⁸  :     104176.733066
 Mol. α(0) /au        :        100.723959


Wiberg/Mayer (AO) data.
largest (>0.10) Wiberg bond orders for each atom

 ---------------------------------------------------------------------------
     #   Z sym  total        # sym  WBO       # sym  WBO       # sym  WBO
 ---------------------------------------------------------------------------
     1   6 C    3.956 --     2 C    1.420     6 C    1.292    11 N    0.994
     2   6 C    3.974 --     1 C    1.420     3 C    1.371    14 H    0.947
     3   6 C    3.948 --     2 C    1.371     4 C    1.246    15 N    1.023
     4   6 C    3.948 --     5 C    1.281     9 O    1.246     3 C    1.246
     5   6 C    3.976 --     6 C    1.543     4 C    1.281     7 H    0.952
     6   6 C    3.972 --     5 C    1.543     1 C    1.292     8 H    0.952
     7   1 H    0.982 --     5 C    0.952
     8   1 H    0.984 --     6 C    0.952
     9   8 O    2.246 --     4 C    1.246    10 H    0.767
    10   1 H    0.831 --     9 O    0.767
    11   7 N    3.907 --    13 O    1.433    12 O    1.431     1 C    0.994
    12   8 O    1.891 --    11 N    1.431    13 O    0.332
    13   8 O    1.892 --    11 N    1.433    12 O    0.332
    14   1 H    0.984 --     2 C    0.947
    15   7 N    3.913 --    17 O    1.445    16 O    1.388     3 C    1.023
    16   8 O    1.899 --    15 N    1.388    17 O    0.315
    17   8 O    1.918 --    15 N    1.445    16 O    0.315
 ---------------------------------------------------------------------------

Topologies differ in total number of bonds
Writing topology from bond orders to xtbtopo.mol

molecular dipole:
                 x           y           z       tot (Debye)
 q only:       -1.180       2.632      -0.002
   full:       -1.217       2.361      -0.002       6.751
molecular quadrupole (traceless):
                xx          xy          yy          xz          yz          zz
 q only:      -18.147      -2.822       6.216      -0.001       0.006      11.931
  q+dip:      -18.481      -1.364       4.708      -0.001       0.008      13.773
   full:      -19.904      -1.573       2.912      -0.001       0.008      16.992

           -------------------------------------------------
          |                Geometry Summary                 |
           -------------------------------------------------

      molecular mass/u    :      184.1066094
   center of mass at/Å    :        0.0083842      -0.0274101       0.0000123
  moments of inertia/u·Å² :        0.3282961E+03   0.8989338E+03   0.1227230E+04
rotational constants/cm⁻¹ :        0.5134886E-01   0.1875292E-01   0.1373633E-01

 * 17 selected distances

     #   Z          #   Z                                           value/Å
     1   6 C        2   6 C                                       1.3807436
     2   6 C        3   6 C                                       1.3931224
     3   6 C        4   6 C                                       1.4210107
     4   6 C        5   6 C                                       1.4112375
     1   6 C        6   6 C                                       1.4045353
     5   6 C        6   6 C                                       1.3676056
     5   6 C        7   1 H                                       1.0776258
     6   6 C        8   1 H                                       1.0789287
     4   6 C        9   8 O                                       1.3094948
     9   8 O       10   1 H                                       0.9880750 (min)
     1   6 C       11   7 N                                       1.4252019 (max)
    11   7 N       12   8 O                                       1.2192388
    11   7 N       13   8 O                                       1.2185986
     2   6 C       14   1 H                                       1.0808514
     3   6 C       15   7 N                                       1.4189539
    15   7 N       16   8 O                                       1.2284847
    15   7 N       17   8 O                                       1.2151276

 * 6 distinct bonds (by element types)

   Z      Z             #   av. dist./Å        max./Å        min./Å
   1 H    6 C           3     1.0791353     1.0808514     1.0776258
   6 C    6 C           6     1.3963759     1.4210107     1.3676056
   6 C    7 N           2     1.4220779     1.4252019     1.4189539
   1 H    8 O           1     0.9880750     0.9880750     0.9880750
   6 C    8 O           1     1.3094948     1.3094948     1.3094948
   7 N    8 O           4     1.2203624     1.2284847     1.2151276

           -------------------------------------------------
          |               Frequency Printout                |
           -------------------------------------------------
 projected vibrational frequencies (cm⁻¹)
eigval :       -0.00    -0.00     0.00     0.00     0.00     0.00
eigval :       35.35    58.92   107.96   142.31   158.76   286.99
eigval :      296.72   338.35   362.87   401.58   416.46   490.37
eigval :      524.89   584.72   620.21   653.85   695.79   704.40
eigval :      730.00   751.17   791.85   825.05   854.55   895.64
eigval :      926.42   932.89  1066.35  1085.40  1133.43  1169.80
eigval :     1216.40  1252.20  1283.00  1332.85  1363.37  1412.99
eigval :     1456.71  1531.85  1557.22  1572.81  1583.93  3091.95
eigval :     3093.43  3107.74  3126.41
 reduced masses (amu)
   1: 14.41   2: 14.32   3: 13.75   4: 14.87   5: 13.32   6: 14.27   7: 15.92   8: 15.37
   9: 13.77  10: 11.62  11: 15.07  12: 14.25  13: 11.84  14: 14.56  15: 14.46  16: 10.26
  17: 13.85  18: 10.21  19: 14.10  20: 12.30  21: 12.33  22: 12.28  23:  2.29  24: 13.78
  25: 12.53  26: 13.04  27: 14.11  28: 13.14  29:  4.88  30:  3.84  31:  3.65  32: 12.19
  33:  6.02  34:  5.29  35:  2.57  36: 10.73  37:  3.71  38: 13.69  39: 12.99  40: 12.92
  41: 11.02  42: 11.11  43: 11.63  44: 11.97  45: 14.02  46: 14.44  47: 12.20  48:  1.85
  49:  1.86  50:  1.83  51:  1.88
 IR intensities (km·mol⁻¹)
   1:  2.58   2:  0.51   3:  0.74   4:  1.26   5:  0.62   6:  1.07   7:  0.34   8:  0.42
   9:  5.86  10: 11.28  11:  9.63  12:  3.74  13:  0.48  14:  1.90  15: 11.09  16:  1.33
  17:  6.99  18:  2.32  19:  1.63  20: 12.12  21: 25.81  22: 20.42  23:219.30  24:107.86
  25: 84.39  26: 44.66  27: 28.97  28: 22.02  29: 20.31  30:  1.44  31:  0.67  32:111.42
  33:126.81  34:661.18  35:319.32  36: 10.89  37: 76.66  38:897.78  39:******  40:225.05
  41:131.51  42: 57.12  43:208.41  44: 30.54  45:244.23  46:907.50  47:535.12  48:193.08
  49:468.42  50:  4.67  51: 13.61
 Raman intensities (amu)
   1:  0.00   2:  0.00   3:  0.00   4:  0.00   5:  0.00   6:  0.00   7:  0.00   8:  0.00
   9:  0.00  10:  0.00  11:  0.00  12:  0.00  13:  0.00  14:  0.00  15:  0.00  16:  0.00
  17:  0.00  18:  0.00  19:  0.00  20:  0.00  21:  0.00  22:  0.00  23:  0.00  24:  0.00
  25:  0.00  26:  0.00  27:  0.00  28:  0.00  29:  0.00  30:  0.00  31:  0.00  32:  0.00
  33:  0.00  34:  0.00  35:  0.00  36:  0.00  37:  0.00  38:  0.00  39:  0.00  40:  0.00
  41:  0.00  42:  0.00  43:  0.00  44:  0.00  45:  0.00  46:  0.00  47:  0.00  48:  0.00
  49:  0.00  50:  0.00  51:  0.00
 output can be read by thermo (or use thermo option).
 writing <g98.out> molden fake output.
 recommended (thermochemical) frequency scaling factor: 1.0
           -------------------------------------------------
          |             Thermodynamic Functions             |
           -------------------------------------------------

Molecule has the following symmetry elements: (sigma) 
It seems to be the Cs point group
cs  symmetry found (for desy threshold:  0.10E+00) used in thermo

          ...................................................
          :                      SETUP                      :
          :.................................................:
          :  # frequencies                          45      :
          :  # imaginary freq.                       0      :
          :  linear?                             false      :
          :  only rotor calc.                    false      :
          :  symmetry                               cs      :
          :  rotational number                       1      :
          :  scaling factor                  1.0000000      :
          :  rotor cutoff                   50.0000000 cm⁻¹ :
          :  imag. cutoff                  -20.0000000 cm⁻¹ :
          :.................................................:

    mode    ω/cm⁻¹     T·S(HO)/kcal·mol⁻¹    T·S(FR)/kcal·mol⁻¹   T·S(vib)
   ------------------------------------------------------------------------
       1     35.35    -1.64102 ( 19.99%)    -1.15909 ( 80.01%)    -1.25543
       2     58.92    -1.33956 ( 65.86%)    -1.00780 ( 34.14%)    -1.22628
       3    107.96    -0.98544 ( 95.60%)    -0.82845 (  4.40%)    -0.97853
       4    142.31    -0.82665 ( 98.50%)    -0.74664 (  1.50%)    -0.82545
       5    158.76    -0.76460 ( 99.03%)    -0.71424 (  0.97%)    -0.76410
       6    286.99    -0.44473 ( 99.91%)    -0.53886 (  0.09%)    -0.44481
       7    296.72    -0.42794 ( 99.92%)    -0.52899 (  0.08%)    -0.42803
   ------------------------------------------------------------------------

   temp. (K)  partition function   enthalpy   heat capacity  entropy
                                   cal/mol     cal/K/mol   cal/K/mol   J/K/mol
 298.15  VIB  0.153E+04             4850.940     33.291     29.144
         ROT  0.145E+07              888.752      2.981     31.179
         INT  0.223E+10             5739.692     36.272     60.324
         TR   0.242E+28             1481.254      4.968     41.518
         TOT                        7220.9460    41.2402   101.8421   426.1073

       T/K    H(0)-H(T)+PV         H(T)/Eh          T*S/Eh         G(T)/Eh
   ------------------------------------------------------------------------
    298.15    0.115073E-01    0.116362E+00    0.483885E-01    0.679736E-01
   ------------------------------------------------------------------------

         :::::::::::::::::::::::::::::::::::::::::::::::::::::
         ::                  THERMODYNAMIC                  ::
         :::::::::::::::::::::::::::::::::::::::::::::::::::::
         :: total free energy         -40.823879393412 Eh   ::
         ::.................................................::
         :: total energy              -40.891853026735 Eh   ::
         :: zero point energy           0.104854788824 Eh   ::
         :: G(RRHO) w/o ZPVE           -0.036881155500 Eh   ::
         :: G(RRHO) contrib.            0.067973633323 Eh   ::
         :::::::::::::::::::::::::::::::::::::::::::::::::::::

optimized geometry written to: xtbopt.xyz


           -------------------------------------------------
          | TOTAL ENERGY              -40.891853026735 Eh   |
          | TOTAL ENTHALPY            -40.775490927915 Eh   |
          | TOTAL FREE ENERGY         -40.823879393412 Eh   |
          | GRADIENT NORM               0.000531179101 Eh/α |
          | HOMO-LUMO GAP               2.530486608294 eV   |
           -------------------------------------------------

------------------------------------------------------------------------
 * finished run on 2021/11/15 at 09:36:14.652     
------------------------------------------------------------------------
 total:
 * wall-time:     0 d,  0 h,  0 min,  1.156 sec
 *  cpu-time:     0 d,  0 h,  0 min,  1.125 sec
 * ratio c/w:     0.974 speedup
 SCF:
 * wall-time:     0 d,  0 h,  0 min,  0.014 sec
 *  cpu-time:     0 d,  0 h,  0 min,  0.016 sec
 * ratio c/w:     1.136 speedup
 ANC optimizer:
 * wall-time:     0 d,  0 h,  0 min,  0.100 sec
 *  cpu-time:     0 d,  0 h,  0 min,  0.109 sec
 * ratio c/w:     1.098 speedup
 analytical hessian:
 * wall-time:     0 d,  0 h,  0 min,  1.005 sec
 *  cpu-time:     0 d,  0 h,  0 min,  1.000 sec
 * ratio c/w:     0.995 speedup

