 Entering Gaussian System
 *********************************************
 Gaussian 98:
 frequency output generated by the xtb code
 *********************************************
                         Standard orientation:
 --------------------------------------------------------------------
  Center     Atomic     Atomic              Coordinates (Angstroms)
  Number     Number      Type              X           Y           Z
 --------------------------------------------------------------------
    1          6             0        1.393726    0.139861   -0.000040
    2          6             0        0.303553   -0.707474   -0.000044
    3          6             0       -0.985435   -0.178987   -0.000151
    4          6             0       -1.190525    1.227146    0.000046
    5          6             0       -0.048057    2.055613    0.000142
    6          6             0        1.215788    1.533079    0.000109
    7          1             0       -0.214883    3.120247    0.000213
    8          1             0        2.087539    2.168797    0.000145
    9          8             0       -2.360964    1.814385    0.000058
   10          1             0       -3.107203    1.166759    0.000037
   11          7             0        2.710446   -0.405529   -0.000368
   12          8             0        2.834504   -1.618440    0.000453
   13          8             0        3.652306    0.367699    0.000175
   14          1             0        0.441044   -1.779545   -0.000173
   15          7             0       -2.072522   -1.090947   -0.000675
   16          8             0       -3.212980   -0.634297    0.000196
   17          8             0       -1.842140   -2.284035    0.000112
 --------------------------------------------------------------------
     1 basis functions        1 primitive gaussians
     1 alpha electrons        1 beta electrons
 
 Harmonic frequencies (cm**-1), IR intensities (km*mol⁻¹),
 Raman scattering activities (A**4/amu), Raman depolarization ratios,
 reduced masses (AMU), force constants (mDyne/A) and normal coordinates:
                      1                      2                      3
                        a                      a                      a 
 Frequencies --    35.3498                58.9242               107.9649
 Red. masses --    15.9188                15.3683                13.7721
 Frc consts  --     0.0000                 0.0000                 0.0000
 IR Inten    --     0.3420                 0.4245                 5.8592
 Raman Activ --     0.0000                 0.0000                 0.0000
 Depolar     --     0.0000                 0.0000                 0.0000
 Atom AN      X      Y      Z        X      Y      Z        X      Y      Z
   1   6    -0.00  -0.00   0.01     0.00  -0.00   0.05     0.00   0.00  -0.26
   2   6    -0.00  -0.00   0.01     0.00  -0.00   0.01     0.00   0.00  -0.22
   3   6    -0.00  -0.00   0.01     0.00  -0.00   0.00     0.00   0.00  -0.11
   4   6     0.00  -0.00   0.07    -0.00  -0.00   0.07     0.00  -0.00   0.07
   5   6     0.00  -0.00   0.05    -0.00  -0.00   0.22     0.00   0.00  -0.23
   6   6     0.00  -0.00   0.00    -0.00  -0.00   0.19     0.00   0.00  -0.40
   7   1     0.00  -0.00   0.02    -0.00  -0.00   0.09     0.00   0.00  -0.07
   8   1     0.00  -0.00  -0.00    -0.00  -0.00   0.07     0.00   0.00  -0.16
   9   8     0.00   0.00   0.14    -0.00  -0.00   0.06     0.00  -0.00   0.63
  10   1     0.00   0.00   0.04    -0.00   0.00  -0.05    -0.00  -0.00   0.15
  11   7    -0.00  -0.00   0.02     0.00  -0.00  -0.08     0.00  -0.00   0.05
  12   8     0.00   0.00   0.68     0.00   0.00   0.03    -0.00   0.00   0.22
  13   8     0.00   0.00  -0.60     0.00   0.00  -0.34    -0.00  -0.00   0.30
  14   1    -0.00  -0.00  -0.01    -0.00  -0.00  -0.02    -0.00   0.00  -0.07
  15   7    -0.00   0.00  -0.09     0.00  -0.00  -0.05     0.00  -0.00  -0.06
  16   8     0.00   0.00   0.07    -0.00   0.00  -0.68    -0.00  -0.00  -0.22
  17   8    -0.00  -0.00  -0.37    -0.00   0.00   0.55     0.00   0.00   0.12
                      4                      5                      6
                        a                      a                      a 
 Frequencies --   142.3093               158.7635               286.9945
 Red. masses --    11.6214                15.0669                14.2519
 Frc consts  --     0.0000                 0.0000                 0.0000
 IR Inten    --    11.2763                 9.6330                 3.7419
 Raman Activ --     0.0000                 0.0000                 0.0000
 Depolar     --     0.0000                 0.0000                 0.0000
 Atom AN      X      Y      Z        X      Y      Z        X      Y      Z
   1   6     0.00   0.00   0.23     0.00   0.19   0.00    -0.12  -0.23   0.00
   2   6     0.00   0.00   0.57     0.02   0.20   0.00    -0.21  -0.06   0.00
   3   6    -0.00  -0.00   0.39     0.02   0.13   0.00    -0.12   0.16   0.00
   4   6     0.00  -0.00   0.12    -0.05   0.11   0.00    -0.01   0.17  -0.00
   5   6     0.00   0.00  -0.23    -0.06   0.14   0.00     0.12  -0.00  -0.00
   6   6     0.00   0.00  -0.24    -0.02   0.19   0.00     0.02  -0.21   0.00
   7   1    -0.00   0.00  -0.16    -0.02   0.04  -0.00     0.09   0.01  -0.00
   8   1     0.00   0.00  -0.18    -0.01   0.06  -0.00     0.03  -0.10   0.00
   9   8     0.00   0.00   0.12    -0.11   0.02  -0.00     0.07   0.39   0.00
  10   1     0.00   0.00   0.04    -0.01  -0.01  -0.00    -0.01   0.14   0.00
  11   7    -0.00   0.00   0.01    -0.13  -0.08  -0.00    -0.09  -0.11   0.00
  12   8     0.00  -0.00  -0.20    -0.53  -0.13   0.00     0.25  -0.08   0.00
  13   8     0.00   0.00  -0.08     0.10  -0.39  -0.00    -0.34   0.18  -0.00
  14   1     0.00  -0.00   0.24     0.02   0.06   0.00    -0.11  -0.02  -0.00
  15   7     0.00  -0.00   0.00     0.18  -0.04  -0.00     0.02   0.00  -0.00
  16   8    -0.00   0.00  -0.32     0.11  -0.27  -0.00    -0.08  -0.31  -0.00
  17   8    -0.00  -0.00  -0.25     0.46   0.01   0.00     0.45   0.08  -0.00
                      7                      8                      9
                        a                      a                      a 
 Frequencies --   296.7197               338.3537               362.8704
 Red. masses --    11.8366                14.5578                14.4649
 Frc consts  --     0.0000                 0.0000                 0.0000
 IR Inten    --     0.4811                 1.8990                11.0876
 Raman Activ --     0.0000                 0.0000                 0.0000
 Depolar     --     0.0000                 0.0000                 0.0000
 Atom AN      X      Y      Z        X      Y      Z        X      Y      Z
   1   6     0.00   0.00   0.48    -0.12   0.09   0.00     0.11   0.13  -0.00
   2   6    -0.00   0.00  -0.03     0.03  -0.08   0.00    -0.02   0.20  -0.00
   3   6     0.00   0.00  -0.31     0.05  -0.17  -0.00    -0.17  -0.04   0.00
   4   6    -0.00   0.00  -0.28     0.28  -0.12  -0.00    -0.06   0.00  -0.00
   5   6    -0.00   0.00  -0.44     0.18   0.02  -0.00     0.00  -0.05  -0.00
   6   6    -0.00   0.00   0.32     0.15   0.10   0.00     0.08   0.11   0.00
   7   1    -0.00   0.00  -0.21    -0.00  -0.00  -0.00    -0.02  -0.02  -0.00
   8   1    -0.00   0.00   0.17     0.07  -0.01   0.00     0.00   0.06   0.00
   9   8    -0.00  -0.00   0.32     0.48   0.10   0.00     0.11   0.45   0.00
  10   1    -0.00  -0.00   0.10     0.08   0.08   0.00    -0.03   0.20  -0.00
  11   7     0.00  -0.00   0.19    -0.27   0.14   0.00     0.19   0.06   0.00
  12   8     0.00  -0.00  -0.14    -0.41   0.14  -0.00     0.09   0.05  -0.00
  13   8     0.00  -0.00  -0.17    -0.33   0.19  -0.00     0.37  -0.12   0.00
  14   1     0.00   0.00  -0.04     0.06  -0.02   0.00     0.01   0.06  -0.00
  15   7    -0.00   0.00  -0.11     0.01  -0.18  -0.00    -0.23  -0.24   0.00
  16   8     0.00   0.00   0.08     0.07  -0.05  -0.00    -0.27  -0.34  -0.00
  17   8    -0.00   0.00   0.07    -0.11  -0.22   0.00    -0.21  -0.26   0.00
                     10                     11                     12
                        a                      a                      a 
 Frequencies --   401.5807               416.4594               490.3686
 Red. masses --    10.2598                13.8545                10.2118
 Frc consts  --     0.0000                 0.0000                 0.0000
 IR Inten    --     1.3327                 6.9867                 2.3216
 Raman Activ --     0.0000                 0.0000                 0.0000
 Depolar     --     0.0000                 0.0000                 0.0000
 Atom AN      X      Y      Z        X      Y      Z        X      Y      Z
   1   6     0.00   0.00   0.04     0.01   0.05   0.00    -0.00   0.00   0.50
   2   6    -0.00  -0.00   0.41    -0.04   0.06   0.00    -0.00   0.00  -0.30
   3   6     0.00  -0.00  -0.57    -0.06   0.07  -0.00    -0.00  -0.00  -0.07
   4   6    -0.00  -0.00  -0.17     0.26   0.07  -0.00     0.00  -0.00   0.44
   5   6    -0.00  -0.00   0.34     0.24   0.15   0.00    -0.00   0.00   0.14
   6   6    -0.00  -0.00  -0.27     0.22   0.08  -0.00     0.00   0.00  -0.32
   7   1    -0.00  -0.00   0.25     0.07   0.04   0.00    -0.00   0.00  -0.11
   8   1    -0.00   0.00  -0.15     0.09  -0.01  -0.00    -0.00   0.00  -0.34
   9   8    -0.00   0.00   0.09     0.06  -0.46   0.00     0.00  -0.00  -0.17
  10   1    -0.00   0.00  -0.02     0.09  -0.22   0.00     0.00   0.00  -0.08
  11   7     0.00  -0.00   0.06     0.01   0.02   0.00    -0.00  -0.00   0.25
  12   8     0.00  -0.00  -0.05     0.02   0.02  -0.00     0.00  -0.00  -0.09
  13   8     0.00  -0.00  -0.02     0.02   0.01  -0.00    -0.00   0.00  -0.10
  14   1     0.00  -0.00   0.32     0.01   0.02   0.00     0.00   0.00  -0.26
  15   7     0.00  -0.00  -0.24    -0.26   0.14  -0.00    -0.00  -0.00  -0.15
  16   8     0.00   0.00   0.15    -0.50  -0.31   0.00     0.00  -0.00   0.06
  17   8    -0.00  -0.00   0.10     0.03   0.22   0.00    -0.00   0.00   0.07
                     13                     14                     15
                        a                      a                      a 
 Frequencies --   524.8857               584.7210               620.2083
 Red. masses --    14.1028                12.2956                12.3350
 Frc consts  --     0.0000                 0.0000                 0.0000
 IR Inten    --     1.6267                12.1194                25.8112
 Raman Activ --     0.0000                 0.0000                 0.0000
 Depolar     --     0.0000                 0.0000                 0.0000
 Atom AN      X      Y      Z        X      Y      Z        X      Y      Z
   1   6     0.05   0.17  -0.00     0.03   0.20  -0.00     0.24   0.01   0.00
   2   6     0.01   0.31  -0.00     0.14   0.10   0.00     0.02   0.31   0.00
   3   6    -0.02   0.09   0.00    -0.02  -0.20   0.00    -0.09   0.03  -0.00
   4   6     0.01   0.16  -0.00    -0.02  -0.38  -0.00    -0.19  -0.08   0.00
   5   6     0.07   0.20   0.00    -0.23  -0.20  -0.00     0.20  -0.56  -0.00
   6   6     0.15   0.27   0.00    -0.08   0.27   0.00     0.41  -0.09   0.00
   7   1     0.01   0.06   0.00    -0.22  -0.08  -0.00     0.09  -0.15  -0.00
   8   1     0.03   0.09   0.00    -0.08   0.16   0.00     0.06   0.04  -0.00
   9   8    -0.13  -0.08   0.00     0.28   0.03   0.00    -0.25  -0.01  -0.00
  10   1     0.02  -0.09  -0.00    -0.03   0.13  -0.00    -0.05  -0.01  -0.00
  11   7    -0.11  -0.29  -0.00    -0.07  -0.17  -0.00     0.05   0.00  -0.00
  12   8     0.35  -0.29   0.00     0.22  -0.17   0.00    -0.25  -0.02   0.00
  13   8    -0.38  -0.02  -0.00    -0.19  -0.07   0.00    -0.13   0.24   0.00
  14   1     0.03   0.09   0.00     0.14   0.04   0.00    -0.00   0.09  -0.00
  15   7     0.10  -0.16   0.00    -0.14   0.14   0.00    -0.02   0.01  -0.00
  16   8     0.17  -0.01  -0.00    -0.19   0.11   0.00     0.01   0.09   0.00
  17   8    -0.26  -0.26   0.00     0.27   0.25  -0.00     0.06   0.04   0.00
                     16                     17                     18
                        a                      a                      a 
 Frequencies --   653.8531               695.7893               704.4043
 Red. masses --    12.2849                 2.2881                13.7791
 Frc consts  --     0.0000                 0.0000                 0.0000
 IR Inten    --    20.4210               219.2989               107.8588
 Raman Activ --     0.0000                 0.0000                 0.0000
 Depolar     --     0.0000                 0.0000                 0.0000
 Atom AN      X      Y      Z        X      Y      Z        X      Y      Z
   1   6    -0.00   0.00  -0.16     0.00  -0.00   0.01    -0.26   0.03   0.00
   2   6    -0.00  -0.00   0.24     0.00  -0.00   0.02    -0.39   0.15  -0.00
   3   6    -0.00   0.00  -0.17     0.00   0.00  -0.07    -0.36  -0.04   0.00
   4   6     0.00   0.00   0.52     0.00   0.00   0.03     0.04  -0.05  -0.00
   5   6    -0.00   0.00  -0.23    -0.00   0.00  -0.06     0.10  -0.07   0.00
   6   6    -0.00   0.00   0.27    -0.00  -0.00   0.05     0.12   0.04  -0.00
   7   1    -0.00   0.00  -0.26     0.00   0.00  -0.08    -0.01  -0.03   0.00
   8   1    -0.00  -0.00  -0.01    -0.00  -0.00  -0.05     0.07  -0.03  -0.00
   9   8     0.00  -0.00  -0.11     0.00  -0.00   0.22     0.09  -0.16   0.00
  10   1     0.00  -0.00   0.04    -0.00   0.00  -0.95     0.05  -0.08  -0.00
  11   7     0.00  -0.00  -0.36     0.00  -0.00  -0.10    -0.15   0.13  -0.00
  12   8     0.00   0.00   0.11    -0.00  -0.00   0.03     0.21   0.21   0.00
  13   8     0.00  -0.00   0.12    -0.00   0.00   0.03     0.16  -0.26   0.00
  14   1    -0.00  -0.00   0.00    -0.00  -0.00   0.01    -0.11   0.04  -0.00
  15   7    -0.00  -0.00  -0.46     0.00   0.00   0.13    -0.09  -0.19   0.00
  16   8     0.00  -0.00   0.14    -0.00  -0.00   0.02     0.12   0.38  -0.00
  17   8    -0.00   0.00   0.15    -0.00  -0.00  -0.05     0.28  -0.15  -0.00
                     19                     20                     21
                        a                      a                      a 
 Frequencies --   730.0027               751.1696               791.8530
 Red. masses --    12.5311                13.0394                14.1077
 Frc consts  --     0.0000                 0.0000                 0.0000
 IR Inten    --    84.3895                44.6597                28.9701
 Raman Activ --     0.0000                 0.0000                 0.0000
 Depolar     --     0.0000                 0.0000                 0.0000
 Atom AN      X      Y      Z        X      Y      Z        X      Y      Z
   1   6     0.00  -0.00   0.42    -0.00   0.00  -0.17     0.15  -0.09   0.00
   2   6     0.00  -0.00  -0.02    -0.00   0.00  -0.01    -0.11   0.21   0.00
   3   6     0.00  -0.00   0.19    -0.00  -0.00   0.49    -0.17   0.01   0.00
   4   6    -0.00   0.00  -0.38    -0.00   0.00  -0.23     0.10   0.02  -0.00
   5   6    -0.00  -0.00   0.17     0.00  -0.00   0.04    -0.10   0.21   0.00
   6   6    -0.00   0.00  -0.07     0.00   0.00  -0.05    -0.24  -0.09   0.00
   7   1     0.00  -0.00  -0.02    -0.00  -0.00   0.05    -0.03   0.06  -0.00
   8   1    -0.00   0.00  -0.16     0.00  -0.00   0.07    -0.09  -0.00  -0.00
   9   8    -0.00   0.00   0.07     0.00  -0.00   0.09     0.20  -0.11   0.00
  10   1    -0.00   0.00   0.05     0.00  -0.00  -0.17     0.07  -0.05   0.00
  11   7     0.00  -0.00  -0.66    -0.00   0.00   0.31     0.38  -0.15  -0.00
  12   8    -0.00   0.00   0.19     0.00  -0.00  -0.09    -0.25  -0.32   0.00
  13   8    -0.00  -0.00   0.20     0.00   0.00  -0.09     0.06   0.40  -0.00
  14   1     0.00   0.00  -0.19    -0.00   0.00  -0.06    -0.09   0.05  -0.00
  15   7     0.00   0.00  -0.15    -0.00  -0.00  -0.66    -0.15  -0.16  -0.00
  16   8     0.00  -0.00   0.05     0.00  -0.00   0.20    -0.05   0.24   0.00
  17   8    -0.00   0.00   0.04    -0.00   0.00   0.19     0.18  -0.16   0.00
                     22                     23                     24
                        a                      a                      a 
 Frequencies --   825.0534               854.5527               895.6442
 Red. masses --    13.1434                 4.8754                 3.8435
 Frc consts  --     0.0000                 0.0000                 0.0000
 IR Inten    --    22.0238                20.3088                 1.4379
 Raman Activ --     0.0000                 0.0000                 0.0000
 Depolar     --     0.0000                 0.0000                 0.0000
 Atom AN      X      Y      Z        X      Y      Z        X      Y      Z
   1   6    -0.02  -0.04   0.00     0.00  -0.00   0.24     0.00  -0.00   0.11
   2   6    -0.23   0.36   0.00     0.00  -0.00  -0.08     0.00   0.00  -0.45
   3   6    -0.10   0.21  -0.00    -0.00  -0.00   0.05    -0.00   0.00   0.11
   4   6     0.06  -0.10   0.00    -0.00   0.00   0.23     0.00   0.00   0.03
   5   6    -0.13  -0.21  -0.00     0.00   0.00  -0.33    -0.00  -0.00   0.10
   6   6    -0.19  -0.14  -0.00     0.00   0.00  -0.28    -0.00  -0.00   0.03
   7   1    -0.08  -0.07   0.00     0.00  -0.00   0.62     0.00   0.00  -0.25
   8   1    -0.10   0.01   0.00     0.00  -0.00   0.50    -0.00  -0.00   0.02
   9   8     0.36  -0.15  -0.00    -0.00   0.00  -0.04     0.00  -0.00  -0.00
  10   1     0.07  -0.02  -0.00    -0.00   0.00  -0.07     0.00  -0.00   0.01
  11   7    -0.01   0.02  -0.00     0.00  -0.00  -0.16    -0.00   0.00  -0.09
  12   8     0.02   0.04  -0.00    -0.00  -0.00   0.04    -0.00   0.00   0.02
  13   8     0.03  -0.03   0.00    -0.00   0.00   0.04    -0.00  -0.00   0.02
  14   1    -0.20   0.09  -0.00     0.00  -0.00   0.11     0.00  -0.00   0.83
  15   7     0.29   0.19   0.00    -0.00  -0.00  -0.07     0.00   0.00  -0.08
  16   8     0.22  -0.32  -0.00    -0.00   0.00   0.02     0.00  -0.00   0.01
  17   8    -0.29   0.18  -0.00     0.00  -0.00   0.02    -0.00   0.00   0.02
                     25                     26                     27
                        a                      a                      a 
 Frequencies --   926.4198               932.8916              1066.3469
 Red. masses --     3.6513                12.1932                 6.0195
 Frc consts  --     0.0000                 0.0000                 0.0000
 IR Inten    --     0.6698               111.4157               126.8141
 Raman Activ --     0.0000                 0.0000                 0.0000
 Depolar     --     0.0000                 0.0000                 0.0000
 Atom AN      X      Y      Z        X      Y      Z        X      Y      Z
   1   6    -0.00  -0.00   0.02    -0.32   0.03   0.00     0.03   0.01   0.00
   2   6    -0.00  -0.00   0.11    -0.26  -0.32  -0.00    -0.02  -0.25  -0.00
   3   6    -0.00  -0.00  -0.07    -0.19  -0.09   0.00     0.16   0.25   0.00
   4   6    -0.00  -0.00   0.01    -0.03  -0.11  -0.00     0.07   0.25   0.00
   5   6     0.00   0.00   0.29     0.03   0.03  -0.00    -0.11  -0.32  -0.00
   6   6     0.00   0.00  -0.37     0.29   0.38   0.00     0.02   0.15   0.00
   7   1    -0.00   0.00  -0.53    -0.21  -0.02   0.00    -0.17  -0.11   0.00
   8   1     0.00  -0.00   0.68     0.13   0.05  -0.00    -0.22   0.35   0.00
   9   8    -0.00   0.00   0.01    -0.09   0.03  -0.00     0.06   0.14   0.00
  10   1    -0.00   0.00  -0.02    -0.05   0.04   0.00     0.36  -0.41  -0.00
  11   7     0.00  -0.00  -0.02     0.27  -0.09  -0.00    -0.01   0.01  -0.00
  12   8    -0.00  -0.00   0.00    -0.08  -0.24   0.00     0.01  -0.00   0.00
  13   8     0.00   0.00   0.00     0.17   0.24   0.00    -0.01  -0.01  -0.00
  14   1    -0.00  -0.00  -0.13    -0.12  -0.10   0.00    -0.23  -0.10   0.00
  15   7     0.00   0.00   0.02     0.16   0.13   0.00    -0.02  -0.07  -0.00
  16   8     0.00  -0.00  -0.00     0.18  -0.13  -0.00    -0.13   0.07   0.00
  17   8    -0.00   0.00  -0.01    -0.09   0.14  -0.00     0.04  -0.14   0.00
                     28                     29                     30
                        a                      a                      a 
 Frequencies --  1085.3996              1133.4342              1169.7984
 Red. masses --     5.2932                 2.5722                10.7328
 Frc consts  --     0.0000                 0.0000                 0.0000
 IR Inten    --   661.1779               319.3223                10.8890
 Raman Activ --     0.0000                 0.0000                 0.0000
 Depolar     --     0.0000                 0.0000                 0.0000
 Atom AN      X      Y      Z        X      Y      Z        X      Y      Z
   1   6    -0.26   0.17  -0.00    -0.04   0.04  -0.00     0.45  -0.28  -0.00
   2   6    -0.01   0.05   0.00    -0.09  -0.14   0.00    -0.01  -0.01   0.00
   3   6    -0.22  -0.24  -0.00    -0.09  -0.04  -0.00    -0.36  -0.41  -0.00
   4   6     0.06   0.13   0.00    -0.07   0.07   0.00     0.03  -0.07   0.00
   5   6    -0.01  -0.12  -0.00     0.10  -0.06  -0.00     0.05   0.27   0.00
   6   6    -0.11  -0.15  -0.00    -0.07   0.09   0.00     0.07   0.02   0.00
   7   1     0.17  -0.01  -0.00     0.65   0.07   0.00    -0.11   0.06  -0.00
   8   1    -0.02  -0.06   0.00    -0.37   0.49   0.00    -0.15   0.25  -0.00
   9   8    -0.04   0.19   0.00     0.10  -0.15  -0.00    -0.11   0.15   0.00
  10   1     0.31  -0.37  -0.00    -0.17   0.21   0.00     0.14  -0.18  -0.00
  11   7     0.11  -0.04  -0.00    -0.03   0.02  -0.00    -0.05   0.03   0.00
  12   8     0.00  -0.07   0.00     0.01  -0.08   0.00    -0.02   0.18  -0.00
  13   8     0.03   0.04  -0.00     0.06   0.04   0.00    -0.12  -0.11  -0.00
  14   1     0.60   0.09  -0.00     0.04  -0.03  -0.00    -0.13  -0.03  -0.00
  15   7     0.12   0.05   0.00    -0.00   0.02   0.00     0.05   0.04   0.00
  16   8     0.03  -0.05  -0.00     0.06  -0.02  -0.00     0.13  -0.07  -0.00
  17   8    -0.04   0.09  -0.00    -0.01   0.01   0.00    -0.03   0.19  -0.00
                     31                     32                     33
                        a                      a                      a 
 Frequencies --  1216.3983              1252.1963              1283.0005
 Red. masses --     3.7096                13.6903                12.9879
 Frc consts  --     0.0000                 0.0000                 0.0000
 IR Inten    --    76.6581               897.7787              2212.3352
 Raman Activ --     0.0000                 0.0000                 0.0000
 Depolar     --     0.0000                 0.0000                 0.0000
 Atom AN      X      Y      Z        X      Y      Z        X      Y      Z
   1   6     0.03  -0.19  -0.00    -0.05   0.20  -0.00    -0.28   0.13   0.00
   2   6    -0.14  -0.05   0.00    -0.14   0.08  -0.00     0.03   0.10  -0.00
   3   6    -0.05   0.21   0.00     0.28  -0.10   0.00     0.07  -0.06  -0.00
   4   6     0.15   0.19   0.00     0.38  -0.07  -0.00     0.32  -0.12   0.00
   5   6     0.08   0.01   0.00    -0.01  -0.03  -0.00     0.08   0.00  -0.00
   6   6     0.10  -0.15  -0.00    -0.03  -0.16  -0.00    -0.02  -0.14  -0.00
   7   1    -0.50  -0.07  -0.00    -0.00  -0.01   0.00    -0.01  -0.01   0.00
   8   1    -0.21   0.27   0.00    -0.08   0.05   0.00    -0.15   0.15   0.00
   9   8    -0.02  -0.13  -0.00    -0.25   0.11   0.00    -0.21   0.06   0.00
  10   1    -0.21   0.23   0.00     0.01  -0.01  -0.00    -0.09   0.09   0.00
  11   7    -0.01   0.03   0.00    -0.11   0.03  -0.00     0.51  -0.21   0.00
  12   8    -0.02   0.03  -0.00     0.03  -0.14   0.00    -0.06   0.35  -0.00
  13   8     0.00  -0.01   0.00     0.09   0.08   0.00    -0.29  -0.20  -0.00
  14   1     0.54   0.06  -0.00    -0.13   0.01   0.00    -0.17   0.01  -0.00
  15   7    -0.07  -0.03   0.00    -0.44  -0.27   0.00     0.10   0.11  -0.00
  16   8     0.07  -0.00  -0.00     0.35  -0.11  -0.00    -0.11   0.04   0.00
  17   8    -0.01  -0.02   0.00    -0.02   0.34  -0.00     0.02  -0.13   0.00
                     34                     35                     36
                        a                      a                      a 
 Frequencies --  1332.8466              1363.3731              1412.9850
 Red. masses --    12.9195                11.0199                11.1148
 Frc consts  --     0.0000                 0.0000                 0.0000
 IR Inten    --   225.0478               131.5074                57.1208
 Raman Activ --     0.0000                 0.0000                 0.0000
 Depolar     --     0.0000                 0.0000                 0.0000
 Atom AN      X      Y      Z        X      Y      Z        X      Y      Z
   1   6     0.12  -0.04   0.00     0.26   0.35  -0.00    -0.09   0.21   0.00
   2   6     0.01  -0.19  -0.00    -0.14  -0.15   0.00     0.51  -0.11   0.00
   3   6    -0.12   0.30   0.00    -0.11  -0.33  -0.00    -0.45   0.10  -0.00
   4   6    -0.15   0.02  -0.00     0.18   0.56   0.00     0.01   0.14   0.00
   5   6    -0.17  -0.05  -0.00    -0.32  -0.18  -0.00     0.43  -0.12  -0.00
   6   6     0.01   0.20   0.00     0.07  -0.09  -0.00    -0.31  -0.03  -0.00
   7   1     0.17   0.02   0.00    -0.03  -0.04  -0.00    -0.19  -0.09  -0.00
   8   1     0.15  -0.13   0.00     0.11  -0.15  -0.00    -0.06  -0.05  -0.00
   9   8     0.16  -0.07   0.00     0.07  -0.14  -0.00    -0.01  -0.06  -0.00
  10   1     0.06  -0.03   0.00    -0.15   0.18   0.00    -0.05   0.04   0.00
  11   7     0.35  -0.15   0.00     0.03  -0.03   0.00    -0.03   0.04  -0.00
  12   8    -0.06   0.29  -0.00     0.01   0.02  -0.00     0.02  -0.09   0.00
  13   8    -0.25  -0.16  -0.00    -0.07  -0.03  -0.00     0.01   0.01  -0.00
  14   1     0.16  -0.03  -0.00    -0.11  -0.06   0.00    -0.19  -0.08  -0.00
  15   7    -0.33  -0.23   0.00     0.05   0.11  -0.00    -0.10  -0.03   0.00
  16   8     0.29  -0.07  -0.00     0.00  -0.01  -0.00     0.14  -0.03  -0.00
  17   8    -0.03   0.21  -0.00     0.02  -0.04   0.00    -0.01   0.05  -0.00
                     37                     38                     39
                        a                      a                      a 
 Frequencies --  1456.7074              1531.8518              1557.2241
 Red. masses --    11.6301                11.9698                14.0177
 Frc consts  --     0.0000                 0.0000                 0.0000
 IR Inten    --   208.4094                30.5414               244.2254
 Raman Activ --     0.0000                 0.0000                 0.0000
 Depolar     --     0.0000                 0.0000                 0.0000
 Atom AN      X      Y      Z        X      Y      Z        X      Y      Z
   1   6     0.26  -0.12  -0.00    -0.22  -0.53  -0.00    -0.14  -0.10   0.00
   2   6    -0.08  -0.10   0.00     0.14   0.26   0.00     0.21   0.07   0.00
   3   6    -0.21   0.24   0.00     0.16  -0.31  -0.00    -0.06  -0.00  -0.00
   4   6     0.56  -0.23  -0.00     0.09   0.37   0.00    -0.01   0.01  -0.00
   5   6    -0.07  -0.17  -0.00     0.05  -0.21  -0.00    -0.22   0.05   0.00
   6   6    -0.24   0.30   0.00    -0.19   0.40   0.00     0.19  -0.08  -0.00
   7   1     0.18  -0.03  -0.00     0.01  -0.06   0.00     0.03   0.03  -0.00
   8   1     0.11  -0.15  -0.00     0.05  -0.04  -0.00    -0.01   0.06   0.00
   9   8    -0.27   0.10   0.00    -0.01  -0.04  -0.00     0.03   0.00  -0.00
  10   1    -0.05   0.04  -0.00    -0.06   0.06   0.00     0.07  -0.06  -0.00
  11   7    -0.11   0.05  -0.00    -0.01  -0.13   0.00    -0.11  -0.14   0.00
  12   8     0.01  -0.04   0.00    -0.03   0.12  -0.00    -0.01   0.06  -0.00
  13   8     0.03   0.02   0.00     0.07   0.04   0.00     0.11   0.08   0.00
  14   1     0.12  -0.01  -0.00    -0.03   0.07   0.00    -0.02   0.01   0.00
  15   7     0.07   0.16  -0.00    -0.04  -0.08   0.00    -0.44   0.56  -0.00
  16   8    -0.02   0.02   0.00     0.01  -0.01  -0.00     0.31  -0.13  -0.00
  17   8     0.01  -0.18   0.00    -0.00   0.10  -0.00     0.08  -0.37   0.00
                     40                     41                     42
                        a                      a                      a 
 Frequencies --  1572.8077              1583.9253              3091.9519
 Red. masses --    14.4394                12.1983                 1.8481
 Frc consts  --     0.0000                 0.0000                 0.0000
 IR Inten    --   907.5026               535.1154               193.0778
 Raman Activ --     0.0000                 0.0000                 0.0000
 Depolar     --     0.0000                 0.0000                 0.0000
 Atom AN      X      Y      Z        X      Y      Z        X      Y      Z
   1   6    -0.01  -0.10  -0.00     0.23   0.18  -0.00    -0.01  -0.00   0.00
   2   6    -0.08   0.05   0.00    -0.41  -0.07  -0.00    -0.03   0.22   0.00
   3   6     0.11  -0.10  -0.00     0.25  -0.12   0.00     0.00  -0.00   0.00
   4   6    -0.06   0.05   0.00    -0.23  -0.03  -0.00    -0.02   0.00  -0.00
   5   6     0.09  -0.03  -0.00     0.48  -0.04   0.00     0.00   0.01   0.00
   6   6    -0.07   0.09   0.00    -0.35   0.13   0.00    -0.00  -0.00  -0.00
   7   1    -0.01  -0.01  -0.00    -0.10  -0.05  -0.00     0.00  -0.03  -0.00
   8   1     0.02  -0.03  -0.00    -0.01  -0.09   0.00     0.01   0.01  -0.00
   9   8     0.01  -0.00  -0.00     0.02   0.01  -0.00    -0.10  -0.09  -0.00
  10   1     0.02  -0.02  -0.00     0.04  -0.06  -0.00     0.45   0.35   0.00
  11   7     0.31   0.68  -0.00    -0.01  -0.25   0.00    -0.00   0.00  -0.00
  12   8     0.03  -0.35   0.00    -0.01   0.16  -0.00    -0.00  -0.00   0.00
  13   8    -0.30  -0.25  -0.00     0.02   0.04   0.00     0.00   0.00   0.00
  14   1     0.00   0.02   0.00     0.08   0.00   0.00     0.10  -0.77  -0.00
  15   7    -0.15   0.19   0.00    -0.15   0.25  -0.00     0.01   0.00  -0.00
  16   8     0.09  -0.04  -0.00     0.08  -0.05  -0.00    -0.01   0.00   0.00
  17   8     0.03  -0.12   0.00     0.04  -0.16   0.00    -0.00   0.00  -0.00
                     43                     44                     45
                        a                      a                      a 
 Frequencies --  3093.4258              3107.7407              3126.4109
 Red. masses --     1.8557                 1.8334                 1.8774
 Frc consts  --     0.0000                 0.0000                 0.0000
 IR Inten    --   468.4197                 4.6653                13.6101
 Raman Activ --     0.0000                 0.0000                 0.0000
 Depolar     --     0.0000                 0.0000                 0.0000
 Atom AN      X      Y      Z        X      Y      Z        X      Y      Z
   1   6    -0.01   0.00   0.00     0.01  -0.00  -0.00     0.00  -0.00  -0.00
   2   6    -0.02   0.16   0.00    -0.00  -0.01  -0.00     0.00  -0.00  -0.00
   3   6     0.01   0.01   0.00    -0.00  -0.00   0.00    -0.00  -0.00  -0.00
   4   6     0.02  -0.01   0.00    -0.00  -0.00  -0.00    -0.01   0.00   0.00
   5   6    -0.01  -0.01  -0.00     0.01  -0.06  -0.00    -0.05   0.27   0.00
   6   6     0.02   0.00   0.00     0.22   0.16   0.00     0.07   0.04   0.00
   7   1    -0.00   0.03   0.00    -0.04   0.24   0.00     0.14  -0.92  -0.00
   8   1    -0.04  -0.03  -0.00    -0.74  -0.55  -0.00    -0.19  -0.15  -0.00
   9   8     0.14   0.13   0.00    -0.01  -0.01  -0.00     0.00   0.00   0.00
  10   1    -0.62  -0.48  -0.00     0.05   0.04   0.00    -0.02  -0.02  -0.00
  11   7     0.00  -0.00   0.00     0.00   0.00   0.00    -0.00   0.00  -0.00
  12   8    -0.00   0.00  -0.00     0.00  -0.00   0.00    -0.00  -0.00   0.00
  13   8    -0.00  -0.00  -0.00    -0.00  -0.00  -0.00     0.00  -0.00  -0.00
  14   1     0.07  -0.56  -0.00    -0.00   0.02   0.00    -0.00   0.01   0.00
  15   7    -0.01  -0.00   0.00     0.00   0.00  -0.00    -0.00   0.00  -0.00
  16   8     0.01  -0.00  -0.00    -0.00   0.00   0.00    -0.00  -0.00   0.00
  17   8     0.00  -0.00  -0.00    -0.00  -0.00   0.00     0.00  -0.00   0.00
