      -----------------------------------------------------------      
     |                   =====================                   |     
     |                           x T B                           |     
     |                   =====================                   |     
     |                         S. Grimme                         |     
     |          Mulliken Center for Theoretical Chemistry        |     
     |                    University of Bonn                     |     
      -----------------------------------------------------------      

   * xtb version 6.4.1 (afa7bdf) compiled by 'ehlert@majestix' on 2021-06-10

   xtb is free software: you can redistribute it and/or modify it under
   the terms of the GNU Lesser General Public License as published by
   the Free Software Foundation, either version 3 of the License, or
   (at your option) any later version.
   
   xtb is distributed in the hope that it will be useful,
   but WITHOUT ANY WARRANTY; without even the implied warranty of
   MERCHANTABILITY or FITNESS FOR A PARTICULAR PURPOSE.  See the
   GNU Lesser General Public License for more details.
   
   Cite this work as:
   * C. Bannwarth, E. Caldeweyher, S. Ehlert, A. Hansen, P. Pracht,
     J. Seibert, S. Spicher, S. Grimme, WIREs Comput. Mol. Sci., 2020, 11,
     e01493. DOI: 10.1002/wcms.1493
   
   for GFN2-xTB:
   * C. Bannwarth, S. Ehlert and S. Grimme., J. Chem. Theory Comput., 2019,
     15, 1652-1671. DOI: 10.1021/acs.jctc.8b01176
   for GFN1-xTB:
   * S. Grimme, C. Bannwarth, P. Shushkov, J. Chem. Theory Comput., 2017,
     13, 1989-2009. DOI: 10.1021/acs.jctc.7b00118
   for GFN0-xTB:
   * P. Pracht, E. Caldeweyher, S. Ehlert, S. Grimme, ChemRxiv, 2019, preprint.
     DOI: 10.26434/chemrxiv.8326202.v1
   for GFN-FF:
   * S. Spicher and S. Grimme, Angew. Chem. Int. Ed., 2020, 59, 15665-15673.
     DOI: 10.1002/anie.202004239
   
   for DFT-D4:
   * E. Caldeweyher, C. Bannwarth and S. Grimme, J. Chem. Phys., 2017,
     147, 034112. DOI: 10.1063/1.4993215
   * E. Caldeweyher, S. Ehlert, A. Hansen, H. Neugebauer, S. Spicher,
     C. Bannwarth and S. Grimme, J. Chem. Phys., 2019, 150, 154122.
     DOI: 10.1063/1.5090222
   * E. Caldeweyher, J.-M. Mewes, S. Ehlert and S. Grimme, Phys. Chem. Chem. Phys.
     2020, 22, 8499-8512. DOI: 10.1039/D0CP00502A
   
   for sTDA-xTB:
   * S. Grimme and C. Bannwarth, J. Chem. Phys., 2016, 145, 054103.
     DOI: 10.1063/1.4959605
   
   in the mass-spec context:
   * V. Asgeirsson, C. Bauer and S. Grimme, Chem. Sci., 2017, 8, 4879.
     DOI: 10.1039/c7sc00601b
   * J. Koopman and S. Grimme, ACS Omega 2019, 4, 12, 15120-15133.
     DOI: 10.1021/acsomega.9b02011
   
   for metadynamics refer to:
   * S. Grimme, J. Chem. Theory Comput., 2019, 155, 2847-2862
     DOI: 10.1021/acs.jctc.9b00143
   
   for SPH calculations refer to:
   * S. Spicher and S. Grimme, J. Chem. Theory Comput., 2021, 17, 1701-1714
     DOI: 10.1021/acs.jctc.0c01306
   
   with help from (in alphabetical order)
   P. Atkinson, C. Bannwarth, F. Bohle, G. Brandenburg, E. Caldeweyher
   M. Checinski, S. Dohm, S. Ehlert, S. Ehrlich, I. Gerasimov, J. Koopman
   C. Lavigne, S. Lehtola, F. März, M. Müller, F. Musil, H. Neugebauer
   J. Pisarek, C. Plett, P. Pracht, J. Seibert, P. Shushkov, S. Spicher
   M. Stahn, M. Steiner, T. Strunk, J. Stückrath, T. Rose, and J. Unsleber
   
 * started run on 2021/11/15 at 09:36:09.225     

           -------------------------------------------------
          |                Calculation Setup                |
           -------------------------------------------------

          program call               : xtb 03_2-methoxyphenol.xyz --gfn2 --chrg 0 --uhf 0 --alpb water --ohess -P 1
          coordinate file            : 03_2-methoxyphenol.xyz
          omp threads                :                     1
          number of atoms            :                    17
          number of electrons        :                    48
          charge                     :                     0
          spin                       :                   0.0
          first test random number   :      0.32663736760811

   ID    Z sym.   atoms
    1    6 C      1-6, 14
    2    1 H      7, 8, 10-12, 15-17
    3    8 O      9, 13

           -------------------------------------------------
          |                 G F N 2 - x T B                 |
           -------------------------------------------------

        Reference                      10.1021/acs.jctc.8b01176
      * Hamiltonian:
        H0-scaling (s, p, d)           1.850000    2.230000    2.230000
        zeta-weighting                 0.500000
      * Dispersion:
        s8                             2.700000
        a1                             0.520000
        a2                             5.000000
        s9                             5.000000
      * Repulsion:
        kExp                           1.500000    1.000000
        rExp                           1.000000
      * Coulomb:
        alpha                          2.000000
        third order                    shell-resolved
        anisotropic                    true
        a3                             3.000000
        a5                             4.000000
        cn-shift                       1.200000
        cn-exp                         4.000000
        max-rad                        5.000000

      * Solvation model:               ALPB
        Solvent                        water
        Parameter file                 internal GFN2-xTB/ALPB
        Dielectric constant                8.0200E+01
        Reference state                gsolv [1 M gas/solution]
        Free energy shift                  1.0808E-03 Eh       6.7819E-01 kcal/mol
        Temperature                        2.9815E+02 K
        Density                            1.0000E+00 kg/L
        Solvent mass                       1.8000E+01 g/mol
        Interaction kernel             P16
        Born radius scaling (c1)           1.4744E+00
        Born radii integrator          GBOBC
        Born offset                        0.0000E+00 a0       0.0000E+00 AA
        H-bond correction              true
        Ion screening                  false
        Surface tension                    1.0000E-05 Eh       1.5569E+01 dyn/cm
        Grid points                               230 per atom

          ...................................................
          :                      SETUP                      :
          :.................................................:
          :  # basis functions                  44          :
          :  # atomic orbitals                  44          :
          :  # shells                           26          :
          :  # electrons                        48          :
          :  max. iterations                   250          :
          :  Hamiltonian                  GFN2-xTB          :
          :  restarted?                      false          :
          :  GBSA solvation                   true          :
          :  PC potential                    false          :
          :  electronic temp.          300.0000000     K    :
          :  accuracy                    1.0000000          :
          :  -> integral cutoff          0.2500000E+02      :
          :  -> integral neglect         0.1000000E-07      :
          :  -> SCF convergence          0.1000000E-05 Eh   :
          :  -> wf. convergence          0.1000000E-03 e    :
          :  Broyden damping             0.4000000          :
          ...................................................

 iter      E             dE          RMSdq      gap      omega  full diag
   1    -27.5320148 -0.275320E+02  0.486E+00    4.09       0.0  T
   2    -27.5488245 -0.168097E-01  0.272E+00    4.12       1.0  T
   3    -27.5485739  0.250556E-03  0.595E-01    4.00       1.0  T
   4    -27.5499070 -0.133311E-02  0.199E-01    4.12       1.0  T
   5    -27.5501572 -0.250196E-03  0.811E-02    4.10       1.0  T
   6    -27.5501606 -0.338093E-05  0.285E-02    4.10       1.0  T
   7    -27.5501625 -0.191663E-05  0.116E-02    4.10       2.1  T
   8    -27.5501633 -0.784699E-06  0.504E-03    4.10       4.8  T
   9    -27.5501633 -0.312164E-07  0.244E-03    4.10       9.9  T
  10    -27.5501634 -0.354295E-07  0.871E-04    4.10      27.8  T
  11    -27.5501634 -0.254973E-08  0.324E-04    4.10      74.9  T

   *** convergence criteria satisfied after 11 iterations ***

         #    Occupation            Energy/Eh            Energy/eV
      -------------------------------------------------------------
         1        2.0000           -0.7233231             -19.6826
       ...           ...                  ...                  ...
        18        2.0000           -0.4682817             -12.7426
        19        2.0000           -0.4654966             -12.6668
        20        2.0000           -0.4460224             -12.1369
        21        2.0000           -0.4369092             -11.8889
        22        2.0000           -0.4263049             -11.6003
        23        2.0000           -0.3943709             -10.7314
        24        2.0000           -0.3709998             -10.0954 (HOMO)
        25                         -0.2202259              -5.9927 (LUMO)
        26                         -0.2138019              -5.8178
        27                         -0.0907659              -2.4699
        28                          0.0023062               0.0628
        29                          0.0762718               2.0755
       ...                                ...                  ...
        44                          0.6481408              17.6368
      -------------------------------------------------------------
                  HL-Gap            0.1507739 Eh            4.1028 eV
             Fermi-level           -0.2956128 Eh           -8.0440 eV

 SCC (total)                   0 d,  0 h,  0 min,  0.014 sec
 SCC setup                      ...        0 min,  0.001 sec (  3.882%)
 Dispersion                     ...        0 min,  0.000 sec (  1.174%)
 classical contributions        ...        0 min,  0.000 sec (  0.197%)
 integral evaluation            ...        0 min,  0.002 sec ( 15.661%)
 iterations                     ...        0 min,  0.006 sec ( 43.341%)
 molecular gradient             ...        0 min,  0.005 sec ( 34.073%)
 printout                       ...        0 min,  0.000 sec (  1.474%)

         :::::::::::::::::::::::::::::::::::::::::::::::::::::
         ::                     SUMMARY                     ::
         :::::::::::::::::::::::::::::::::::::::::::::::::::::
         :: total energy             -27.193661389237 Eh    ::
         :: total w/o Gsasa/hb       -27.189527426723 Eh    ::
         :: gradient norm              0.023166476797 Eh/a0 ::
         :: HOMO-LUMO gap              4.102767440288 eV    ::
         ::.................................................::
         :: SCC energy               -27.550163358056 Eh    ::
         :: -> isotropic ES            0.043625723662 Eh    ::
         :: -> anisotropic ES          0.002213235468 Eh    ::
         :: -> anisotropic XC          0.007471331903 Eh    ::
         :: -> dispersion             -0.012742438849 Eh    ::
         :: -> Gsolv                  -0.009199440577 Eh    ::
         ::    -> Gelec               -0.005065478063 Eh    ::
         ::    -> Gsasa                0.000455183109 Eh    ::
         ::    -> Ghb                 -0.005669905320 Eh    ::
         ::    -> Gshift               0.001080759698 Eh    ::
         :: repulsion energy           0.356470976832 Eh    ::
         :: add. restraining           0.000000000000 Eh    ::
         :: total charge              -0.000000000000 e     ::
         :::::::::::::::::::::::::::::::::::::::::::::::::::::

      ----------------------------------------------------------- 
     |                   =====================                   |
     |                        A N C O P T                        |
     |                   =====================                   |
     |               Approximate Normal Coordinate               |
     |                Rational Function Optimizer                |
      ----------------------------------------------------------- 

          ...................................................
          :                      SETUP                      :
          :.................................................:
          :   optimization level            normal          :
          :   max. optcycles                   200          :
          :   ANC micro-cycles                  20          :
          :   degrees of freedom                45          :
          :.................................................:
          :   RF solver                   davidson          :
          :   write xtbopt.log                true          :
          :   linear?                        false          :
          :   energy convergence         0.5000000E-05 Eh   :
          :   grad. convergence          0.1000000E-02 Eh/α :
          :   maximium RF displ.         1.0000000          :
          :   Hlow (freq-cutoff)         0.1000000E-01      :
          :   Hmax (freq-cutoff)         5.0000000          :
          :   S6 in model hess.         20.0000000          :
          ...................................................

generating ANC from model Hessian ...
Using Lindh-Hessian (1995)
 Shifting diagonal of input Hessian by   7.265342689907949E-003
 Lowest  eigenvalues of input Hessian
    0.000000    0.000000    0.000000    0.000000    0.000000    0.000000
    0.010000    0.012247    0.015371    0.016800    0.023149    0.027862
    0.034206    0.036683    0.050329    0.059423    0.071679    0.077131
 Highest eigenvalues
    1.524234    1.663767    1.768031    1.880000    2.024602    2.106138
 

........................................................................
.............................. CYCLE    1 ..............................
........................................................................
   1    -27.5501634 -0.275502E+02  0.997E-05    4.10       0.0  T
   2    -27.5501634 -0.756977E-10  0.596E-05    4.10     406.7  T
   3    -27.5501634 -0.259988E-10  0.358E-05    4.10     677.5  T
     SCC iter.                  ...        0 min,  0.002 sec
     gradient                   ...        0 min,  0.003 sec
 * total energy  :   -27.1936614 Eh     change       -0.2218741E-09 Eh
   gradient norm :     0.0231682 Eh/α   predicted     0.0000000E+00 (-100.00%)
   displ. norm   :     0.0704511 α      lambda       -0.1167749E-02
   maximum displ.:     0.0386798 α      in ANC's #21, #26, #23, ...

........................................................................
.............................. CYCLE    2 ..............................
........................................................................
   1    -27.5627718 -0.275628E+02  0.897E-02    4.16       0.0  T
   2    -27.5627777 -0.596620E-05  0.546E-02    4.15       1.0  T
   3    -27.5627759  0.187515E-05  0.285E-02    4.15       1.0  T
   4    -27.5627805 -0.467659E-05  0.343E-03    4.15       7.1  T
   5    -27.5627806 -0.444193E-07  0.209E-03    4.15      11.6  T
   6    -27.5627806 -0.140851E-07  0.112E-03    4.15      21.7  T
   7    -27.5627806 -0.361071E-08  0.342E-04    4.15      70.9  T
   8    -27.5627806 -0.315854E-09  0.159E-04    4.15     152.2  T
     SCC iter.                  ...        0 min,  0.004 sec
     gradient                   ...        0 min,  0.003 sec
 * total energy  :   -27.1943691 Eh     change       -0.7077293E-03 Eh
   gradient norm :     0.0082011 Eh/α   predicted    -0.5867725E-03 ( -17.09%)
   displ. norm   :     0.0243356 α      lambda       -0.1008914E-03
   maximum displ.:     0.0118219 α      in ANC's #7, #21, #10, ...

........................................................................
.............................. CYCLE    3 ..............................
........................................................................
   1    -27.5656730 -0.275657E+02  0.296E-02    4.16       0.0  T
   2    -27.5656754 -0.243944E-05  0.174E-02    4.16       1.4  T
   3    -27.5656764 -0.930883E-06  0.105E-02    4.16       2.3  T
   4    -27.5656766 -0.218276E-06  0.196E-03    4.16      12.4  T
   5    -27.5656766 -0.175620E-07  0.109E-03    4.16      22.3  T
   6    -27.5656766 -0.476251E-08  0.599E-04    4.16      40.5  T
   7    -27.5656766 -0.110392E-08  0.106E-04    4.16     229.8  T
     SCC iter.                  ...        0 min,  0.004 sec
     gradient                   ...        0 min,  0.005 sec
 * total energy  :   -27.1944293 Eh     change       -0.6020633E-04 Eh
   gradient norm :     0.0035170 Eh/α   predicted    -0.5047407E-04 ( -16.16%)
   displ. norm   :     0.0147286 α      lambda       -0.1791870E-04
   maximum displ.:     0.0105720 α      in ANC's #7, #3, #10, ...

........................................................................
.............................. CYCLE    4 ..............................
........................................................................
   1    -27.5657123 -0.275657E+02  0.135E-02    4.16       0.0  T
   2    -27.5657130 -0.721840E-06  0.783E-03    4.16       3.1  T
   3    -27.5657133 -0.292054E-06  0.458E-03    4.16       5.3  T
   4    -27.5657133 -0.293105E-07  0.108E-03    4.16      22.5  T
   5    -27.5657133 -0.471107E-08  0.534E-04    4.16      45.4  T
   6    -27.5657133 -0.145111E-08  0.278E-04    4.16      87.1  T
     SCC iter.                  ...        0 min,  0.004 sec
     gradient                   ...        0 min,  0.004 sec
 * total energy  :   -27.1944418 Eh     change       -0.1242909E-04 Eh
   gradient norm :     0.0014715 Eh/α   predicted    -0.8960076E-05 ( -27.91%)
   displ. norm   :     0.0223658 α      lambda       -0.7550930E-05
   maximum displ.:     0.0144566 α      in ANC's #7, #3, #10, ...

........................................................................
.............................. CYCLE    5 ..............................
........................................................................
   1    -27.5650223 -0.275650E+02  0.159E-02    4.16       0.0  T
   2    -27.5650229 -0.566121E-06  0.935E-03    4.16       2.6  T
   3    -27.5650231 -0.166000E-06  0.578E-03    4.16       4.2  T
   4    -27.5650232 -0.763039E-07  0.101E-03    4.16      24.1  T
   5    -27.5650232 -0.436462E-08  0.477E-04    4.16      50.9  T
   6    -27.5650232 -0.128738E-08  0.239E-04    4.16     101.6  T
     SCC iter.                  ...        0 min,  0.003 sec
     gradient                   ...        0 min,  0.004 sec
 * total energy  :   -27.1944460 Eh     change       -0.4202729E-05 Eh
   gradient norm :     0.0009997 Eh/α   predicted    -0.3775875E-05 ( -10.16%)
   displ. norm   :     0.0034309 α      lambda       -0.9239868E-06
   maximum displ.:     0.0022609 α      in ANC's #3, #7, #10, ...

   *** GEOMETRY OPTIMIZATION CONVERGED AFTER 5 ITERATIONS ***

------------------------------------------------------------------------
 total energy gain   :        -0.0007846 Eh       -0.4923 kcal/mol
 total RMSD          :         0.0252970 a0        0.0134 Å
 total power (kW/mol):        -0.4119764 (step)  -21.8827 (real)
------------------------------------------------------------------------

 ANCopt (total)                0 d,  0 h,  0 min,  0.094 sec
 optimizer setup                ...        0 min,  0.000 sec (  0.229%)
 model hessian                  ...        0 min,  0.028 sec ( 30.211%)
 ANC generation                 ...        0 min,  0.004 sec (  4.601%)
 coordinate transformation      ...        0 min,  0.008 sec (  8.366%)
 single point calculation       ...        0 min,  0.045 sec ( 47.392%)
 optimization log               ...        0 min,  0.005 sec (  5.811%)
 hessian update                 ...        0 min,  0.000 sec (  0.043%)
 rational function              ...        0 min,  0.002 sec (  2.623%)

================
 final structure:
================
17
 xtb: 6.4.1 (afa7bdf)
C        -1.37196554964213   -1.64579926489417   -0.00000003783570
C        -0.00901517610312   -1.38292211330465   -0.00003059821604
C         0.44343890535368   -0.07544962489788   -0.00006928998021
C        -0.48315722331998    0.98139494163364   -0.00007362289696
C        -1.83946297551610    0.70402374481381   -0.00004833014567
C        -2.28352059291560   -0.60865622518580   -0.00001334058919
H        -2.52999446335430    1.53207824681510   -0.00005582265353
H        -3.34233505429329   -0.81298433891998    0.00000961376408
O        -0.06088406838554    2.27546565049440   -0.00010376521219
H         0.91013808917169    2.29042763758333   -0.00010603326203
H         0.68841415619175   -2.20483305187007   -0.00002535281758
H        -1.71147159225863   -2.66956669594507    0.00003557196802
O         1.76416472072524    0.31594066158912   -0.00010523460791
C         2.76070304430203   -0.68473847156422   -0.00008473258397
H         2.69240396468086   -1.30952100090363   -0.89431653176290
H         3.70621474671581   -0.14702868367722   -0.00005000982831
H         2.69235006864765   -1.30954141176673    0.89412651666009
 
 Bond Distances (Angstroems)
 ---------------------------
C1-C2=1.3881         C1-C6=1.3808         C1-H12=1.0786        C2-C1=1.3881         C2-C3=1.3835         C2-H11=1.0779        
C3-C2=1.3835         C3-C4=1.4055         C3-O13=1.3775        C4-C3=1.4055         C4-C5=1.3844         C4-O9=1.3612         
C5-C4=1.3844         C5-C6=1.3858         C5-H7=1.0782         C6-C1=1.3808         C6-C5=1.3858         C6-H8=1.0783         
H7-C5=1.0782         H8-C6=1.0783         O9-C4=1.3612         O9-H10=0.9711        H10-O9=0.9711        H11-C2=1.0779        
H12-C1=1.0786        O13-C3=1.3775        O13-C14=1.4122       C14-O13=1.4122       C14-H15=1.0930       C14-H16=1.0877       
C14-H17=1.0930       H15-C14=1.0930       H16-C14=1.0877       H17-C14=1.0930       
 C  H  Rav=1.0838 sigma=0.0066  Rmin=1.0779  Rmax=1.0930     7
 C  C  Rav=1.3880 sigma=0.0081  Rmin=1.3808  Rmax=1.4055     6
 O  H  Rav=0.9711 sigma=0.0000  Rmin=0.9711  Rmax=0.9711     1
 O  C  Rav=1.3837 sigma=0.0213  Rmin=1.3612  Rmax=1.4122     3
 
 selected bond angles (degree)
 --------------------
C6-C1-C2=120.40                H12-C1-C2=119.26               H12-C1-C6=120.34               C3-C2-C1=120.01                
H11-C2-C1=119.40               H11-C2-C3=120.60               C4-C3-C2=119.67                O13-C3-C2=125.60               
O13-C3-C4=114.74               C5-C4-C3=119.68                O9-C4-C3=120.68                O9-C4-C5=119.63                
C6-C5-C4=120.25                H7-C5-C4=118.27                H7-C5-C6=121.48                C5-C6-C1=120.00                
H8-C6-C1=120.39                H8-C6-C5=119.61                H10-O9-C4=108.95               
 
 selected dihedral angles (degree)
 ---------------------------------
C3-C2-C1-C6=  0.00            C3-C2-C1-H12=180.00           H11-C2-C1-C6=180.00           H11-C2-C1-H12=  0.00          
C4-C3-C2-C1=  0.00            C4-C3-C2-H11=180.00           O13-C3-C2-C1=180.00           O13-C3-C2-H11=  0.00          
C5-C4-C3-C2=  0.00            C5-C4-C3-O13=180.00           O9-C4-C3-C2=180.00            O9-C4-C3-O13=  0.00           
C6-C5-C4-C3=  0.00            C6-C5-C4-O9=180.00            H7-C5-C4-C3=180.00            H7-C5-C4-O9=  0.00            
C5-C6-C1-C2=  0.00            C5-C6-C1-H12=180.00           H8-C6-C1-C2=180.00            H8-C6-C1-H12=  0.00           
C1-C6-C5-C4=  0.00            C1-C6-C5-H7=180.00            H8-C6-C5-C4=180.00            H8-C6-C5-H7=  0.00            
H10-O9-C4-C3=  0.00           H10-O9-C4-C5=180.00           
           -------------------------------------------------
          |                Final Singlepoint                |
           -------------------------------------------------

          ...................................................
          :                      SETUP                      :
          :.................................................:
          :  # basis functions                  44          :
          :  # atomic orbitals                  44          :
          :  # shells                           26          :
          :  # electrons                        48          :
          :  max. iterations                   250          :
          :  Hamiltonian                  GFN2-xTB          :
          :  restarted?                      false          :
          :  GBSA solvation                   true          :
          :  PC potential                    false          :
          :  electronic temp.          300.0000000     K    :
          :  accuracy                    1.0000000          :
          :  -> integral cutoff          0.2500000E+02      :
          :  -> integral neglect         0.1000000E-07      :
          :  -> SCF convergence          0.1000000E-05 Eh   :
          :  -> wf. convergence          0.1000000E-03 e    :
          :  Broyden damping             0.4000000          :
          ...................................................

 iter      E             dE          RMSdq      gap      omega  full diag
   1    -27.5650232 -0.275650E+02  0.588E-05    4.16       0.0  T
   2    -27.5650232 -0.736833E-11  0.409E-05    4.16     593.3  T
   3    -27.5650232 -0.291323E-11  0.259E-05    4.16     936.0  T

   *** convergence criteria satisfied after 3 iterations ***

         #    Occupation            Energy/Eh            Energy/eV
      -------------------------------------------------------------
         1        2.0000           -0.7225924             -19.6627
       ...           ...                  ...                  ...
        18        2.0000           -0.4685229             -12.7492
        19        2.0000           -0.4648620             -12.6495
        20        2.0000           -0.4468379             -12.1591
        21        2.0000           -0.4365473             -11.8791
        22        2.0000           -0.4256943             -11.5837
        23        2.0000           -0.3953948             -10.7592
        24        2.0000           -0.3710492             -10.0968 (HOMO)
        25                         -0.2181803              -5.9370 (LUMO)
        26                         -0.2120679              -5.7707
        27                         -0.0863624              -2.3500
        28                          0.0091627               0.2493
        29                          0.0837651               2.2794
       ...                                ...                  ...
        44                          0.6681029              18.1800
      -------------------------------------------------------------
                  HL-Gap            0.1528689 Eh            4.1598 eV
             Fermi-level           -0.2946147 Eh           -8.0169 eV

 SCC (total)                   0 d,  0 h,  0 min,  0.007 sec
 SCC setup                      ...        0 min,  0.000 sec (  4.910%)
 Dispersion                     ...        0 min,  0.000 sec (  0.609%)
 classical contributions        ...        0 min,  0.000 sec (  0.214%)
 integral evaluation            ...        0 min,  0.001 sec ( 20.794%)
 iterations                     ...        0 min,  0.002 sec ( 27.038%)
 molecular gradient             ...        0 min,  0.003 sec ( 44.006%)
 printout                       ...        0 min,  0.000 sec (  2.145%)

         :::::::::::::::::::::::::::::::::::::::::::::::::::::
         ::                     SUMMARY                     ::
         :::::::::::::::::::::::::::::::::::::::::::::::::::::
         :: total energy             -27.194445957109 Eh    ::
         :: total w/o Gsasa/hb       -27.190181721575 Eh    ::
         :: gradient norm              0.000997612366 Eh/a0 ::
         :: HOMO-LUMO gap              4.159775325219 eV    ::
         ::.................................................::
         :: SCC energy               -27.565023158228 Eh    ::
         :: -> isotropic ES            0.043410009381 Eh    ::
         :: -> anisotropic ES          0.001834289353 Eh    ::
         :: -> anisotropic XC          0.006804012304 Eh    ::
         :: -> dispersion             -0.012777440007 Eh    ::
         :: -> Gsolv                  -0.009184942249 Eh    ::
         ::    -> Gelec               -0.004920706715 Eh    ::
         ::    -> Gsasa                0.000435413263 Eh    ::
         ::    -> Ghb                 -0.005780408495 Eh    ::
         ::    -> Gshift               0.001080759698 Eh    ::
         :: repulsion energy           0.370546164640 Eh    ::
         :: add. restraining           0.000000000000 Eh    ::
         :: total charge              -0.000000000000 e     ::
         :::::::::::::::::::::::::::::::::::::::::::::::::::::

           ------------------------------------------------- 
          |                Numerical Hessian                |
           ------------------------------------------------- 
step length          :   0.00500
SCC accuracy         :   0.30000
Hessian scale factor :   1.00000
frozen atoms in %    :   0.00000    0
RMS gradient         :   0.00100
estimated CPU  time      0.01 min
estimated wall time      0.01 min

writing file <hessian>.

 projected vibrational frequencies (cm⁻¹)
eigval :       -0.00    -0.00    -0.00     0.00     0.00     0.00
eigval :       82.77   168.52   191.72   229.57   289.54   319.63
eigval :      436.26   454.58   473.04   507.67   527.56   561.62
eigval :      670.09   771.75   778.64   817.31   860.99   893.90
eigval :      914.52  1031.67  1080.91  1092.81  1117.86  1129.60
eigval :     1143.22  1170.57  1193.80  1261.23  1264.92  1351.07
eigval :     1390.03  1445.45  1457.37  1471.21  1483.12  1589.16
eigval :     1593.63  2947.76  2960.73  3034.38  3089.06  3097.49
eigval :     3108.12  3112.98  3428.12
           -------------------------------------------------
          |                Property Printout                |
           -------------------------------------------------

    * Orbital Energies and Occupations

         #    Occupation            Energy/Eh            Energy/eV
      -------------------------------------------------------------
         1        2.0000           -0.7225925             -19.6627
       ...           ...                  ...                  ...
        12        2.0000           -0.5313677             -14.4593
        13        2.0000           -0.5220205             -14.2049
        14        2.0000           -0.5165407             -14.0558
        15        2.0000           -0.4981671             -13.5558
        16        2.0000           -0.4884290             -13.2908
        17        2.0000           -0.4745034             -12.9119
        18        2.0000           -0.4685231             -12.7492
        19        2.0000           -0.4648622             -12.6495
        20        2.0000           -0.4468380             -12.1591
        21        2.0000           -0.4365473             -11.8791
        22        2.0000           -0.4256943             -11.5837
        23        2.0000           -0.3953948             -10.7592
        24        2.0000           -0.3710492             -10.0968 (HOMO)
        25                         -0.2181803              -5.9370 (LUMO)
        26                         -0.2120678              -5.7707
        27                         -0.0863623              -2.3500
        28                          0.0091626               0.2493
        29                          0.0837652               2.2794
        30                          0.1082972               2.9469
        31                          0.1248698               3.3979
        32                          0.1551559               4.2220
        33                          0.1683680               4.5815
        34                          0.1857927               5.0557
        35                          0.1914354               5.2092
       ...                                ...                  ...
        44                          0.6681030              18.1800
      -------------------------------------------------------------
                  HL-Gap            0.1528689 Eh            4.1598 eV
             Fermi-level           -0.2946147 Eh           -8.0169 eV

     #   Z          covCN         q      C6AA      α(0)
     1   6 C        2.921    -0.051    29.264     8.871
     2   6 C        2.917    -0.073    29.813     8.954
     3   6 C        2.861     0.103    25.716     8.312
     4   6 C        2.846     0.123    25.301     8.244
     5   6 C        2.919    -0.066    29.645     8.929
     6   6 C        2.919    -0.048    29.197     8.861
     7   1 H        0.926     0.054     2.276     2.359
     8   1 H        0.926     0.046     2.366     2.406
     9   8 O        1.659    -0.450    21.837     6.308
    10   1 H        0.804     0.372     0.540     1.154
    11   1 H        0.926     0.050     2.325     2.384
    12   1 H        0.926     0.045     2.381     2.413
    13   8 O        1.704    -0.312    19.211     5.918
    14   6 C        3.640     0.023    20.541     6.517
    15   1 H        0.924     0.053     2.286     2.364
    16   1 H        0.925     0.079     1.987     2.205
    17   1 H        0.924     0.053     2.286     2.364

 Mol. C6AA /au·bohr⁶  :       3198.605162
 Mol. C8AA /au·bohr⁸  :      75514.320096
 Mol. α(0) /au        :         88.562539


Wiberg/Mayer (AO) data.
largest (>0.10) Wiberg bond orders for each atom

 ---------------------------------------------------------------------------
     #   Z sym  total        # sym  WBO       # sym  WBO       # sym  WBO
 ---------------------------------------------------------------------------
     1   6 C    3.990 --     6 C    1.453     2 C    1.414    12 H    0.970
     2   6 C    3.987 --     1 C    1.414     3 C    1.408    11 H    0.965
     3   6 C    3.930 --     2 C    1.408     4 C    1.290    13 O    1.032
     4   6 C    3.942 --     5 C    1.402     3 C    1.290     9 O    1.075
     5   6 C    3.986 --     6 C    1.422     4 C    1.402     7 H    0.967
     6   6 C    3.991 --     1 C    1.453     5 C    1.422     8 H    0.970
     7   1 H    0.996 --     5 C    0.967
     8   1 H    0.998 --     6 C    0.970
     9   8 O    2.080 --     4 C    1.075    10 H    0.839
    10   1 H    0.862 --     9 O    0.839
    11   1 H    0.998 --     2 C    0.965
    12   1 H    0.998 --     1 C    0.970
    13   8 O    2.188 --     3 C    1.032    14 C    0.972
    14   6 C    3.932 --    16 H    0.977    15 H    0.977    17 H    0.977
                            13 O    0.972
    15   1 H    0.997 --    14 C    0.977
    16   1 H    0.993 --    14 C    0.977
    17   1 H    0.997 --    14 C    0.977
 ---------------------------------------------------------------------------

Topologies differ in total number of bonds
Writing topology from bond orders to xtbtopo.mol

molecular dipole:
                 x           y           z       tot (Debye)
 q only:        0.777      -0.646       0.000
   full:        0.978      -0.809       0.000       3.228
molecular quadrupole (traceless):
                xx          xy          yy          xz          yz          zz
 q only:        5.954       0.508      -2.413      -0.000       0.000      -3.542
  q+dip:        6.932       0.672      -2.129      -0.000       0.000      -4.803
   full:        6.354       0.610      -3.102      -0.000       0.000      -3.252

           -------------------------------------------------
          |                Geometry Summary                 |
           -------------------------------------------------

      molecular mass/u    :      124.1374871
   center of mass at/Å    :       -0.0245192       0.0339813      -0.0000610
  moments of inertia/u·Å² :        0.1929036E+03   0.3244671E+03   0.5141468E+03
rotational constants/cm⁻¹ :        0.8738888E-01   0.5195482E-01   0.3278758E-01

 * 17 selected distances

     #   Z          #   Z                                           value/Å
     1   6 C        2   6 C                                       1.3880699
     2   6 C        3   6 C                                       1.3835458
     3   6 C        4   6 C                                       1.4055251
     4   6 C        5   6 C                                       1.3843771
     1   6 C        6   6 C                                       1.3807962
     5   6 C        6   6 C                                       1.3857546
     5   6 C        7   1 H                                       1.0781966
     6   6 C        8   1 H                                       1.0783497
     4   6 C        9   8 O                                       1.3612250
     9   8 O       10   1 H                                       0.9711374 (min)
     2   6 C       11   1 H                                       1.0779356
     1   6 C       12   1 H                                       1.0785936
     3   6 C       13   8 O                                       1.3774988
    13   8 O       14   6 C                                       1.4122490 (max)
    14   6 C       15   1 H                                       1.0930089
    14   6 C       16   1 H                                       1.0877151
    14   6 C       17   1 H                                       1.0930071

 * 4 distinct bonds (by element types)

   Z      Z             #   av. dist./Å        max./Å        min./Å
   1 H    6 C           7     1.0838295     1.0930089     1.0779356
   6 C    6 C           6     1.3880115     1.4055251     1.3807962
   1 H    8 O           1     0.9711374     0.9711374     0.9711374
   6 C    8 O           3     1.3836576     1.4122490     1.3612250

           -------------------------------------------------
          |               Frequency Printout                |
           -------------------------------------------------
 projected vibrational frequencies (cm⁻¹)
eigval :       -0.00    -0.00    -0.00     0.00     0.00     0.00
eigval :       82.77   168.52   191.72   229.57   289.54   319.63
eigval :      436.26   454.58   473.04   507.67   527.56   561.62
eigval :      670.09   771.75   778.64   817.31   860.99   893.90
eigval :      914.52  1031.67  1080.91  1092.81  1117.86  1129.60
eigval :     1143.22  1170.57  1193.80  1261.23  1264.92  1351.07
eigval :     1390.03  1445.45  1457.37  1471.21  1483.12  1589.16
eigval :     1593.63  2947.76  2960.73  3034.38  3089.06  3097.49
eigval :     3108.12  3112.98  3428.12
 reduced masses (amu)
   1: 13.30   2: 12.18   3: 11.00   4: 12.20   5: 11.93   6: 10.90   7:  9.98   8: 11.00
   9: 10.94  10:  4.03  11:  9.91  12: 11.47  13:  9.47  14:  2.36  15: 12.90  16: 10.95
  17: 10.41  18: 11.69  19: 11.79  20: 11.55  21:  3.33  22: 11.96  23:  3.28  24:  3.92
  25:  3.05  26: 11.60  27:  6.45  28:  5.88  29:  3.69  30:  7.17  31:  6.00  32:  3.05
  33:  4.83  34:  4.82  35:  9.66  36: 10.73  37:  2.60  38:  9.48  39:  1.54  40:  2.30
  41:  9.70  42: 11.56  43: 11.54  44:  1.96  45:  1.44  46:  1.71  47:  1.76  48:  1.82
  49:  1.85  50:  1.90  51:  1.86
 IR intensities (km·mol⁻¹)
   1:  0.39   2:  0.74   3:  0.09   4:  0.03   5:  0.09   6:  1.38   7:  4.67   8:  1.54
   9:  1.31  10:  0.16  11:  1.44  12:  7.85  13:  0.87  14:209.51  15:  3.96  16: 13.24
  17:  0.10  18:  6.09  19:  0.05  20: 87.91  21: 55.70  22: 34.07  23:  0.05  24:  3.33
  25:  0.24  26: 36.80  27: 32.08  28: 43.48  29:  2.87  30:435.39  31: 32.51  32: 50.80
  33: 72.67  34:137.39  35:335.05  36: 18.64  37:  2.94  38:  1.31  39:  7.28  40: 64.53
  41:312.53  42: 34.92  43: 33.15  44: 46.13  45: 44.69  46: 17.62  47: 12.65  48: 70.42
  49:111.98  50: 31.87  51:193.29
 Raman intensities (amu)
   1:  0.00   2:  0.00   3:  0.00   4:  0.00   5:  0.00   6:  0.00   7:  0.00   8:  0.00
   9:  0.00  10:  0.00  11:  0.00  12:  0.00  13:  0.00  14:  0.00  15:  0.00  16:  0.00
  17:  0.00  18:  0.00  19:  0.00  20:  0.00  21:  0.00  22:  0.00  23:  0.00  24:  0.00
  25:  0.00  26:  0.00  27:  0.00  28:  0.00  29:  0.00  30:  0.00  31:  0.00  32:  0.00
  33:  0.00  34:  0.00  35:  0.00  36:  0.00  37:  0.00  38:  0.00  39:  0.00  40:  0.00
  41:  0.00  42:  0.00  43:  0.00  44:  0.00  45:  0.00  46:  0.00  47:  0.00  48:  0.00
  49:  0.00  50:  0.00  51:  0.00
 output can be read by thermo (or use thermo option).
 writing <g98.out> molden fake output.
 recommended (thermochemical) frequency scaling factor: 1.0
           -------------------------------------------------
          |             Thermodynamic Functions             |
           -------------------------------------------------

Molecule has the following symmetry elements: (sigma) 
It seems to be the Cs point group
cs  symmetry found (for desy threshold:  0.10E+00) used in thermo

          ...................................................
          :                      SETUP                      :
          :.................................................:
          :  # frequencies                          45      :
          :  # imaginary freq.                       0      :
          :  linear?                             false      :
          :  only rotor calc.                    false      :
          :  symmetry                               cs      :
          :  rotational number                       1      :
          :  scaling factor                  1.0000000      :
          :  rotor cutoff                   50.0000000 cm⁻¹ :
          :  imag. cutoff                  -20.0000000 cm⁻¹ :
          :.................................................:

    mode    ω/cm⁻¹     T·S(HO)/kcal·mol⁻¹    T·S(FR)/kcal·mol⁻¹   T·S(vib)
   ------------------------------------------------------------------------
       1     82.77    -1.14015 ( 88.25%)    -0.90706 ( 11.75%)    -1.11276
       2    168.52    -0.73105 ( 99.23%)    -0.69652 (  0.77%)    -0.73078
       3    191.72    -0.65924 ( 99.54%)    -0.65831 (  0.46%)    -0.65923
       4    229.57    -0.56121 ( 99.78%)    -0.60496 (  0.22%)    -0.56131
       5    289.54    -0.44027 ( 99.91%)    -0.53622 (  0.09%)    -0.44035
   ------------------------------------------------------------------------

   temp. (K)  partition function   enthalpy   heat capacity  entropy
                                   cal/mol     cal/K/mol   cal/K/mol   J/K/mol
 298.15  VIB   50.5                 3441.616     25.991     19.245
         ROT  0.433E+06              888.752      2.981     28.774
         INT  0.219E+08             4330.369     28.972     48.019
         TR   0.134E+28             1481.254      4.968     40.344
         TOT                        5811.6225    33.9403    88.3635   369.7127

       T/K    H(0)-H(T)+PV         H(T)/Eh          T*S/Eh         G(T)/Eh
   ------------------------------------------------------------------------
    298.15    0.926141E-02    0.141386E+00    0.419843E-01    0.994016E-01
   ------------------------------------------------------------------------

         :::::::::::::::::::::::::::::::::::::::::::::::::::::
         ::                  THERMODYNAMIC                  ::
         :::::::::::::::::::::::::::::::::::::::::::::::::::::
         :: total free energy         -27.095044383899 Eh   ::
         ::.................................................::
         :: total energy              -27.194445957538 Eh   ::
         :: zero point energy           0.132124492512 Eh   ::
         :: G(RRHO) w/o ZPVE           -0.032722918874 Eh   ::
         :: G(RRHO) contrib.            0.099401573639 Eh   ::
         :::::::::::::::::::::::::::::::::::::::::::::::::::::

optimized geometry written to: xtbopt.xyz


           -------------------------------------------------
          | TOTAL ENERGY              -27.194445957538 Eh   |
          | TOTAL ENTHALPY            -27.053060055133 Eh   |
          | TOTAL FREE ENERGY         -27.095044383899 Eh   |
          | GRADIENT NORM               0.000997422249 Eh/α |
          | HOMO-LUMO GAP               4.159774578284 eV   |
           -------------------------------------------------

------------------------------------------------------------------------
 * finished run on 2021/11/15 at 09:36:10.105     
------------------------------------------------------------------------
 total:
 * wall-time:     0 d,  0 h,  0 min,  0.880 sec
 *  cpu-time:     0 d,  0 h,  0 min,  0.812 sec
 * ratio c/w:     0.924 speedup
 SCF:
 * wall-time:     0 d,  0 h,  0 min,  0.014 sec
 *  cpu-time:     0 d,  0 h,  0 min,  0.016 sec
 * ratio c/w:     1.116 speedup
 ANC optimizer:
 * wall-time:     0 d,  0 h,  0 min,  0.102 sec
 *  cpu-time:     0 d,  0 h,  0 min,  0.047 sec
 * ratio c/w:     0.458 speedup
 analytical hessian:
 * wall-time:     0 d,  0 h,  0 min,  0.724 sec
 *  cpu-time:     0 d,  0 h,  0 min,  0.719 sec
 * ratio c/w:     0.993 speedup

