 Entering Gaussian System
 *********************************************
 Gaussian 98:
 frequency output generated by the xtb code
 *********************************************
                         Standard orientation:
 --------------------------------------------------------------------
  Center     Atomic     Atomic              Coordinates (Angstroms)
  Number     Number      Type              X           Y           Z
 --------------------------------------------------------------------
    1          6             0       -1.371974   -1.645792    0.000008
    2          6             0       -0.009022   -1.382922   -0.000028
    3          6             0        0.443439   -0.075452   -0.000071
    4          6             0       -0.483152    0.981397   -0.000074
    5          6             0       -1.839459    0.704033   -0.000043
    6          6             0       -2.283524   -0.608644   -0.000004
    7          1             0       -2.529986    1.532091   -0.000050
    8          1             0       -3.342339   -0.812967    0.000023
    9          8             0       -0.060872    2.275466   -0.000108
   10          1             0        0.910150    2.290423   -0.000113
   11          1             0        0.688403   -2.204837   -0.000024
   12          1             0       -1.711486   -2.669558    0.000046
   13          8             0        1.764166    0.315931   -0.000112
   14          6             0        2.760699   -0.684753   -0.000093
   15          1             0        2.692394   -1.309537   -0.894324
   16          1             0        3.706214   -0.147048   -0.000063
   17          1             0        2.692346   -1.309554    0.894119
 --------------------------------------------------------------------
     1 basis functions        1 primitive gaussians
     1 alpha electrons        1 beta electrons
 
 Harmonic frequencies (cm**-1), IR intensities (km*mol⁻¹),
 Raman scattering activities (A**4/amu), Raman depolarization ratios,
 reduced masses (AMU), force constants (mDyne/A) and normal coordinates:
                      1                      2                      3
                        a                      a                      a 
 Frequencies --    82.7702               168.5179               191.7245
 Red. masses --     9.9755                10.9978                10.9391
 Frc consts  --     0.0000                 0.0000                 0.0000
 IR Inten    --     4.6727                 1.5353                 1.3098
 Raman Activ --     0.0000                 0.0000                 0.0000
 Depolar     --     0.0000                 0.0000                 0.0000
 Atom AN      X      Y      Z        X      Y      Z        X      Y      Z
   1   6     0.00   0.00   0.08    -0.00  -0.00  -0.20     0.19   0.00  -0.00
   2   6     0.00   0.00   0.30    -0.00  -0.00  -0.28     0.14   0.17  -0.00
   3   6     0.00   0.00   0.25    -0.00  -0.00   0.02     0.09   0.20   0.00
   4   6    -0.00   0.00   0.02    -0.00  -0.00  -0.03     0.00   0.12   0.00
   5   6    -0.00  -0.00  -0.24     0.00   0.00   0.27     0.02  -0.06   0.00
   6   6    -0.00  -0.00  -0.21    -0.00   0.00   0.26     0.10  -0.08   0.00
   7   1    -0.00  -0.00  -0.13     0.00   0.00   0.12    -0.01  -0.03   0.00
   8   1    -0.00  -0.00  -0.12     0.00   0.00   0.15     0.03  -0.05   0.00
   9   8    -0.00   0.00  -0.01     0.00  -0.00  -0.47    -0.44   0.29  -0.00
  10   1    -0.00   0.00   0.03     0.00  -0.00  -0.12    -0.11   0.19  -0.00
  11   1     0.00   0.00   0.15    -0.00  -0.00  -0.15     0.05   0.06  -0.00
  12   1     0.00   0.00   0.03    -0.00  -0.00  -0.12     0.09  -0.01  -0.00
  13   8     0.00   0.00   0.46     0.00   0.00   0.51     0.21  -0.08   0.00
  14   6    -0.00  -0.00  -0.52     0.00   0.00  -0.02    -0.22  -0.49   0.00
  15   1    -0.14   0.10  -0.21     0.07   0.20  -0.15    -0.14  -0.13  -0.00
  16   1     0.00  -0.00  -0.24    -0.00   0.00   0.20     0.01  -0.27  -0.00
  17   1     0.14  -0.10  -0.21    -0.07  -0.20  -0.15    -0.14  -0.13   0.00
                      4                      5                      6
                        a                      a                      a 
 Frequencies --   229.5679               289.5356               319.6317
 Red. masses --     4.0336                 9.9102                11.4709
 Frc consts  --     0.0000                 0.0000                 0.0000
 IR Inten    --     0.1556                 1.4391                 7.8532
 Raman Activ --     0.0000                 0.0000                 0.0000
 Depolar     --     0.0000                 0.0000                 0.0000
 Atom AN      X      Y      Z        X      Y      Z        X      Y      Z
   1   6    -0.00  -0.00  -0.29     0.00  -0.00   0.22     0.21  -0.09  -0.00
   2   6    -0.00  -0.00  -0.02     0.00  -0.00  -0.38     0.17   0.01   0.00
   3   6    -0.00  -0.00   0.13    -0.00  -0.00  -0.29    -0.11   0.09   0.00
   4   6    -0.00  -0.00   0.10    -0.00  -0.00  -0.30    -0.08   0.08   0.00
   5   6    -0.00   0.00   0.27    -0.00  -0.00  -0.33    -0.05  -0.02   0.00
   6   6    -0.00   0.00  -0.02     0.00  -0.00   0.30     0.17  -0.13  -0.00
   7   1     0.00   0.00   0.12    -0.00  -0.00  -0.11    -0.06  -0.05   0.00
   8   1    -0.00   0.00  -0.02     0.00  -0.00   0.23     0.06  -0.07  -0.00
   9   8     0.00  -0.00  -0.24     0.00  -0.00   0.23     0.49  -0.09  -0.00
  10   1     0.00  -0.00  -0.08     0.00  -0.00   0.11     0.13  -0.16  -0.00
  11   1    -0.00  -0.00   0.01     0.00  -0.00  -0.13     0.07   0.03   0.00
  12   1    -0.00  -0.00  -0.17     0.00   0.00   0.18     0.07  -0.03  -0.00
  13   8    -0.00   0.00   0.10    -0.00   0.00   0.35    -0.23   0.28  -0.00
  14   6    -0.00   0.00   0.04    -0.00   0.00   0.03    -0.53  -0.03   0.00
  15   1    -0.29  -0.29   0.24    -0.16  -0.09   0.09    -0.22  -0.00  -0.00
  16   1     0.00   0.00  -0.49    -0.00  -0.00  -0.22    -0.09  -0.11   0.00
  17   1     0.29   0.29   0.24     0.16   0.09   0.09    -0.22  -0.00   0.00
                      7                      8                      9
                        a                      a                      a 
 Frequencies --   436.2634               454.5840               473.0437
 Red. masses --     9.4714                 2.3624                12.9042
 Frc consts  --     0.0000                 0.0000                 0.0000
 IR Inten    --     0.8653               209.5146                 3.9610
 Raman Activ --     0.0000                 0.0000                 0.0000
 Depolar     --     0.0000                 0.0000                 0.0000
 Atom AN      X      Y      Z        X      Y      Z        X      Y      Z
   1   6     0.00  -0.00   0.11    -0.00  -0.00   0.01     0.01   0.33  -0.00
   2   6    -0.00  -0.00  -0.34     0.00  -0.00  -0.02     0.10   0.05  -0.00
   3   6     0.00   0.00   0.49     0.00  -0.00   0.07     0.28  -0.02   0.00
   4   6     0.00   0.00   0.47     0.00   0.00   0.08    -0.03  -0.36   0.00
   5   6    -0.00  -0.00  -0.33     0.00   0.00   0.01    -0.11   0.04  -0.00
   6   6     0.00   0.00   0.13     0.00   0.00   0.03    -0.23   0.14  -0.00
   7   1    -0.00  -0.00  -0.33     0.00   0.00  -0.03     0.06   0.08  -0.00
   8   1     0.00   0.00  -0.00     0.00   0.00   0.01    -0.06  -0.00  -0.00
   9   8    -0.00   0.00  -0.11    -0.00  -0.00  -0.28    -0.15  -0.49   0.00
  10   1    -0.00   0.00  -0.16     0.00   0.00   0.95    -0.04  -0.10   0.00
  11   1    -0.00  -0.00  -0.33    -0.00  -0.00  -0.06    -0.06  -0.06  -0.00
  12   1    -0.00  -0.00  -0.01    -0.00  -0.00  -0.02     0.01   0.09  -0.00
  13   8    -0.00  -0.00  -0.16    -0.00  -0.00  -0.07     0.29   0.37  -0.00
  14   6     0.00   0.00  -0.00    -0.00   0.00  -0.01    -0.10  -0.02   0.00
  15   1     0.01  -0.03   0.02     0.01  -0.01  -0.00    -0.12   0.00   0.00
  16   1    -0.00   0.00  -0.01    -0.00   0.00  -0.01     0.05  -0.15   0.00
  17   1    -0.01   0.03   0.02    -0.01   0.01  -0.00    -0.12   0.00  -0.00
                     10                     11                     12
                        a                      a                      a 
 Frequencies --   507.6688               527.5567               561.6171
 Red. masses --    10.9539                10.4129                11.6855
 Frc consts  --     0.0000                 0.0000                 0.0000
 IR Inten    --    13.2427                 0.0995                 6.0923
 Raman Activ --     0.0000                 0.0000                 0.0000
 Depolar     --     0.0000                 0.0000                 0.0000
 Atom AN      X      Y      Z        X      Y      Z        X      Y      Z
   1   6    -0.02  -0.04   0.00    -0.00  -0.00  -0.47     0.33   0.25  -0.00
   2   6     0.05  -0.37   0.00     0.00   0.00   0.27     0.34  -0.14  -0.00
   3   6     0.03  -0.30  -0.00     0.00   0.00   0.33    -0.16  -0.06   0.00
   4   6     0.30  -0.11  -0.00    -0.00  -0.00  -0.34    -0.25  -0.04   0.00
   5   6     0.35   0.13  -0.00    -0.00  -0.00  -0.26    -0.31   0.36   0.00
   6   6     0.26   0.22  -0.00     0.00   0.00   0.46     0.24   0.21  -0.00
   7   1     0.15   0.07  -0.00    -0.00   0.00  -0.08    -0.10   0.09   0.00
   8   1     0.06   0.12  -0.00     0.00   0.00   0.27     0.09  -0.07  -0.00
   9   8    -0.30   0.05   0.00    -0.00  -0.00   0.15    -0.13  -0.15   0.00
  10   1    -0.08   0.21  -0.00    -0.00  -0.00   0.03    -0.03  -0.08   0.00
  11   1    -0.02  -0.13   0.00     0.00   0.00   0.11     0.12  -0.02  -0.00
  12   1    -0.11   0.02   0.00    -0.00  -0.00  -0.26     0.02   0.10  -0.00
  13   8    -0.23   0.12   0.00    -0.00  -0.00  -0.15    -0.19  -0.31   0.00
  14   6    -0.29   0.16   0.00    -0.00  -0.00  -0.02     0.08  -0.07   0.00
  15   1    -0.10   0.04   0.00     0.03   0.00  -0.01     0.10  -0.02  -0.00
  16   1    -0.06   0.01   0.00    -0.00  -0.00   0.03    -0.04   0.09  -0.00
  17   1    -0.10   0.04  -0.00    -0.03  -0.00  -0.01     0.10  -0.02   0.00
                     13                     14                     15
                        a                      a                      a 
 Frequencies --   670.0937               771.7522               778.6379
 Red. masses --    11.7932                11.5470                 3.3349
 Frc consts  --     0.0000                 0.0000                 0.0000
 IR Inten    --     0.0466                87.9147                55.7009
 Raman Activ --     0.0000                 0.0000                 0.0000
 Depolar     --     0.0000                 0.0000                 0.0000
 Atom AN      X      Y      Z        X      Y      Z        X      Y      Z
   1   6     0.00   0.00   0.25    -0.14  -0.31   0.00     0.00   0.00   0.21
   2   6    -0.00  -0.00  -0.28    -0.04  -0.40   0.00     0.00   0.00   0.21
   3   6     0.00   0.00   0.58    -0.06  -0.12  -0.00    -0.00   0.00  -0.16
   4   6    -0.00  -0.00  -0.59    -0.18   0.11  -0.00     0.00  -0.00  -0.19
   5   6     0.00   0.00   0.27    -0.32   0.25   0.00     0.00  -0.00   0.16
   6   6    -0.00  -0.00  -0.25     0.16   0.04  -0.00     0.00   0.00   0.17
   7   1     0.00   0.00   0.12    -0.17   0.00  -0.00    -0.00  -0.00  -0.33
   8   1    -0.00  -0.00  -0.03     0.04  -0.01  -0.00    -0.00  -0.00  -0.47
   9   8     0.00   0.00   0.09     0.05   0.18  -0.00    -0.00  -0.00   0.05
  10   1     0.00  -0.00   0.02     0.01  -0.01   0.00    -0.00  -0.00  -0.00
  11   1    -0.00  -0.00  -0.08    -0.02  -0.13  -0.00    -0.00  -0.00  -0.44
  12   1     0.00   0.00   0.05    -0.17  -0.05  -0.00    -0.00  -0.00  -0.51
  13   8    -0.00  -0.00  -0.08     0.37   0.34  -0.00    -0.00  -0.00   0.05
  14   6    -0.00   0.00  -0.01     0.18  -0.07  -0.00    -0.00   0.00   0.00
  15   1     0.01  -0.01   0.00    -0.07  -0.01   0.00    -0.00  -0.01   0.01
  16   1     0.00  -0.00   0.00     0.14  -0.19   0.00    -0.00   0.00  -0.02
  17   1    -0.01   0.01   0.00    -0.07  -0.01  -0.00     0.00   0.01   0.01
                     16                     17                     18
                        a                      a                      a 
 Frequencies --   817.3083               860.9888               893.8966
 Red. masses --    11.9635                 3.2835                 3.9165
 Frc consts  --     0.0000                 0.0000                 0.0000
 IR Inten    --    34.0669                 0.0495                 3.3255
 Raman Activ --     0.0000                 0.0000                 0.0000
 Depolar     --     0.0000                 0.0000                 0.0000
 Atom AN      X      Y      Z        X      Y      Z        X      Y      Z
   1   6     0.10   0.34  -0.00    -0.00   0.00   0.08     0.00   0.00   0.31
   2   6     0.29  -0.34   0.00     0.00   0.00   0.32    -0.00  -0.00  -0.23
   3   6     0.11  -0.20   0.00    -0.00  -0.00  -0.01     0.00   0.00   0.03
   4   6     0.03   0.00  -0.00    -0.00   0.00   0.02     0.00   0.00   0.08
   5   6    -0.12  -0.17   0.00    -0.00  -0.00  -0.23    -0.00  -0.00  -0.31
   6   6    -0.48  -0.13   0.00    -0.00  -0.00  -0.21     0.00   0.00   0.12
   7   1    -0.00  -0.02  -0.00     0.00   0.00   0.52     0.00   0.00   0.51
   8   1    -0.11  -0.14   0.00     0.00   0.00   0.34    -0.00  -0.00  -0.19
   9   8     0.17   0.46  -0.00    -0.00  -0.00  -0.01    -0.00  -0.00  -0.02
  10   1     0.04   0.11  -0.00    -0.00  -0.00  -0.01    -0.00  -0.00   0.01
  11   1    -0.03  -0.19   0.00    -0.00  -0.00  -0.63     0.00   0.00   0.38
  12   1     0.04   0.08  -0.00    -0.00  -0.00  -0.08    -0.00  -0.00  -0.54
  13   8    -0.05  -0.03   0.00     0.00  -0.00   0.01    -0.00   0.00  -0.01
  14   6    -0.04   0.04  -0.00     0.00   0.00  -0.00    -0.00  -0.00   0.00
  15   1    -0.02   0.01   0.00     0.00  -0.01   0.01    -0.00   0.01  -0.00
  16   1    -0.00  -0.00  -0.00     0.00   0.00  -0.02    -0.00  -0.00   0.01
  17   1    -0.02   0.01  -0.00    -0.00   0.01   0.01     0.00  -0.01  -0.00
                     19                     20                     21
                        a                      a                      a 
 Frequencies --   914.5215              1031.6667              1080.9099
 Red. masses --     3.0494                11.6017                 6.4539
 Frc consts  --     0.0000                 0.0000                 0.0000
 IR Inten    --     0.2353                36.8027                32.0847
 Raman Activ --     0.0000                 0.0000                 0.0000
 Depolar     --     0.0000                 0.0000                 0.0000
 Atom AN      X      Y      Z        X      Y      Z        X      Y      Z
   1   6    -0.00  -0.00  -0.22    -0.03  -0.20   0.00     0.04  -0.29   0.00
   2   6     0.00   0.00   0.03    -0.08   0.11  -0.00     0.05   0.07  -0.00
   3   6     0.00   0.00   0.08     0.36  -0.03  -0.00    -0.02   0.01  -0.00
   4   6    -0.00  -0.00  -0.06     0.04  -0.14   0.00     0.13  -0.15  -0.00
   5   6    -0.00  -0.00  -0.15    -0.28   0.23  -0.00    -0.14   0.28  -0.00
   6   6     0.00   0.00   0.32     0.03  -0.04  -0.00    -0.25  -0.04   0.00
   7   1     0.00   0.00   0.38    -0.07   0.07   0.00     0.27   0.34  -0.00
   8   1    -0.00  -0.00  -0.64     0.02  -0.12   0.00    -0.06  -0.09   0.00
   9   8     0.00   0.00  -0.01     0.06   0.08  -0.00     0.10  -0.06   0.00
  10   1     0.00   0.00   0.01     0.01   0.16  -0.00     0.01   0.43  -0.00
  11   1    -0.00  -0.00  -0.17    -0.05   0.00  -0.00     0.21   0.18  -0.00
  12   1     0.00   0.00   0.48     0.05  -0.07   0.00     0.22  -0.15  -0.00
  13   8    -0.00  -0.00  -0.00     0.32  -0.36   0.00    -0.26   0.15  -0.00
  14   6     0.00   0.00  -0.00    -0.43   0.31  -0.00     0.17  -0.14   0.00
  15   1     0.00  -0.00   0.00     0.02   0.04   0.00     0.01  -0.01  -0.01
  16   1     0.00   0.00  -0.01    -0.16   0.18  -0.00     0.06  -0.08  -0.00
  17   1    -0.00   0.00   0.00     0.02   0.04  -0.00     0.01  -0.01   0.01
                     22                     23                     24
                        a                      a                      a 
 Frequencies --  1092.8091              1117.8561              1129.6015
 Red. masses --     5.8846                 3.6945                 7.1672
 Frc consts  --     0.0000                 0.0000                 0.0000
 IR Inten    --    43.4842                 2.8697               435.3854
 Raman Activ --     0.0000                 0.0000                 0.0000
 Depolar     --     0.0000                 0.0000                 0.0000
 Atom AN      X      Y      Z        X      Y      Z        X      Y      Z
   1   6     0.06   0.24  -0.00    -0.00  -0.00  -0.00    -0.00  -0.06   0.00
   2   6    -0.30   0.17   0.00     0.00   0.00   0.00    -0.12   0.14  -0.00
   3   6     0.09  -0.11  -0.00     0.00   0.00   0.00     0.32  -0.10  -0.00
   4   6     0.08  -0.12  -0.00    -0.00  -0.00  -0.00    -0.11  -0.23   0.00
   5   6    -0.13  -0.03   0.00     0.00  -0.00   0.00    -0.01   0.12  -0.00
   6   6     0.27  -0.05  -0.00     0.00   0.00  -0.00     0.14  -0.07  -0.00
   7   1    -0.27  -0.21   0.00    -0.00  -0.00  -0.00     0.23   0.23  -0.00
   8   1     0.13  -0.28   0.00     0.00   0.00  -0.00     0.06  -0.14   0.00
   9   8     0.11  -0.05   0.00    -0.00   0.00   0.00    -0.07   0.36  -0.00
  10   1     0.01   0.43  -0.00     0.00  -0.00  -0.00     0.00  -0.55   0.00
  11   1    -0.30  -0.13   0.00    -0.00  -0.00  -0.02    -0.22  -0.12   0.00
  12   1     0.06   0.06  -0.00    -0.00   0.00   0.00     0.13  -0.06   0.00
  13   8    -0.23   0.03  -0.00    -0.00   0.00  -0.22    -0.26   0.07   0.00
  14   6     0.19   0.01   0.00    -0.00  -0.00   0.42     0.12  -0.10  -0.00
  15   1    -0.10   0.00   0.02    -0.39   0.42  -0.17    -0.04  -0.01   0.00
  16   1     0.13  -0.16  -0.00     0.00  -0.00  -0.23     0.01   0.01   0.00
  17   1    -0.10   0.00  -0.02     0.39  -0.42  -0.17    -0.04  -0.01  -0.00
                     25                     26                     27
                        a                      a                      a 
 Frequencies --  1143.2194              1170.5677              1193.8048
 Red. masses --     5.9988                 3.0455                 4.8314
 Frc consts  --     0.0000                 0.0000                 0.0000
 IR Inten    --    32.5051                50.7988                72.6674
 Raman Activ --     0.0000                 0.0000                 0.0000
 Depolar     --     0.0000                 0.0000                 0.0000
 Atom AN      X      Y      Z        X      Y      Z        X      Y      Z
   1   6    -0.05  -0.01   0.00    -0.03  -0.12   0.00     0.14   0.06  -0.00
   2   6    -0.01  -0.03   0.00     0.15   0.06  -0.00    -0.16  -0.12   0.00
   3   6     0.17   0.06  -0.00     0.25  -0.08  -0.00    -0.30  -0.04   0.00
   4   6     0.02  -0.13   0.00    -0.07  -0.05   0.00     0.05   0.24  -0.00
   5   6    -0.07  -0.05   0.00    -0.05   0.07  -0.00     0.08   0.10  -0.00
   6   6     0.07   0.03  -0.00    -0.06   0.08  -0.00    -0.05  -0.03   0.00
   7   1    -0.12  -0.10   0.00    -0.33  -0.25   0.00     0.09   0.08  -0.00
   8   1     0.02   0.02  -0.00    -0.14   0.68  -0.00    -0.00  -0.07   0.00
   9   8     0.05   0.04  -0.00     0.00   0.03  -0.00    -0.05  -0.13   0.00
  10   1     0.01   0.14  -0.00     0.00   0.01  -0.00    -0.01  -0.01   0.00
  11   1    -0.05  -0.05   0.00    -0.05  -0.07   0.00    -0.35  -0.29   0.00
  12   1    -0.17   0.05   0.00     0.37  -0.16  -0.00     0.61  -0.17  -0.00
  13   8    -0.08   0.36  -0.00    -0.18  -0.03   0.00     0.22   0.09  -0.00
  14   6    -0.10  -0.44  -0.00     0.07  -0.01  -0.00    -0.08  -0.06   0.00
  15   1     0.32  -0.06  -0.04    -0.05   0.00   0.01     0.10  -0.02  -0.00
  16   1    -0.33   0.44  -0.00     0.03  -0.04   0.00    -0.10   0.14  -0.00
  17   1     0.32  -0.06   0.04    -0.05   0.00  -0.01     0.10  -0.02   0.00
                     28                     29                     30
                        a                      a                      a 
 Frequencies --  1261.2349              1264.9230              1351.0670
 Red. masses --     4.8195                 9.6638                10.7291
 Frc consts  --     0.0000                 0.0000                 0.0000
 IR Inten    --   137.3904               335.0519                18.6367
 Raman Activ --     0.0000                 0.0000                 0.0000
 Depolar     --     0.0000                 0.0000                 0.0000
 Atom AN      X      Y      Z        X      Y      Z        X      Y      Z
   1   6    -0.02   0.12  -0.00    -0.25  -0.08   0.00     0.31  -0.24   0.00
   2   6    -0.23  -0.03   0.00     0.24   0.04  -0.00    -0.13  -0.22   0.00
   3   6    -0.12  -0.30   0.00     0.28  -0.07  -0.00     0.04   0.46  -0.00
   4   6     0.19  -0.19   0.00     0.14   0.45  -0.00     0.44  -0.06  -0.00
   5   6     0.03   0.04  -0.00     0.19   0.34  -0.00    -0.19  -0.09   0.00
   6   6    -0.03   0.17  -0.00    -0.19  -0.15   0.00    -0.20   0.37  -0.00
   7   1    -0.26  -0.22   0.00    -0.25  -0.15   0.00    -0.14  -0.09   0.00
   8   1     0.04  -0.21   0.00     0.00  -0.37   0.00    -0.02  -0.11   0.00
   9   8    -0.05   0.16  -0.00    -0.13  -0.23   0.00    -0.06  -0.02   0.00
  10   1    -0.00  -0.22   0.00    -0.02  -0.13   0.00    -0.01  -0.19   0.00
  11   1     0.42   0.41  -0.00     0.01  -0.05   0.00    -0.08  -0.11   0.00
  12   1     0.31  -0.07  -0.00    -0.04  -0.04   0.00    -0.06  -0.02   0.00
  13   8     0.09   0.10  -0.00    -0.17   0.00   0.00    -0.12  -0.07   0.00
  14   6    -0.06  -0.04  -0.00     0.05  -0.05  -0.00     0.09  -0.00   0.00
  15   1     0.06   0.01  -0.02    -0.03  -0.00  -0.00    -0.11   0.02   0.00
  16   1    -0.01  -0.02   0.00    -0.02   0.04   0.00    -0.01   0.04  -0.00
  17   1     0.06   0.01   0.02    -0.03  -0.00   0.00    -0.11   0.02  -0.00
                     31                     32                     33
                        a                      a                      a 
 Frequencies --  1390.0270              1445.4468              1457.3673
 Red. masses --     2.5963                 9.4786                 1.5403
 Frc consts  --     0.0000                 0.0000                 0.0000
 IR Inten    --     2.9410                 1.3075                 7.2827
 Raman Activ --     0.0000                 0.0000                 0.0000
 Depolar     --     0.0000                 0.0000                 0.0000
 Atom AN      X      Y      Z        X      Y      Z        X      Y      Z
   1   6    -0.04   0.06  -0.00    -0.42  -0.03   0.00     0.00   0.00   0.00
   2   6    -0.02  -0.01   0.00     0.19  -0.19   0.00    -0.00  -0.00   0.00
   3   6    -0.05  -0.06   0.00     0.11   0.33  -0.00     0.00  -0.00  -0.00
   4   6    -0.07   0.01   0.00    -0.36  -0.14   0.00     0.00   0.00   0.00
   5   6     0.01  -0.02   0.00     0.18  -0.20   0.00    -0.00  -0.00   0.00
   6   6     0.04  -0.03   0.00     0.09   0.39  -0.00     0.00  -0.00  -0.00
   7   1     0.03   0.02  -0.00     0.05  -0.07   0.00     0.00   0.00  -0.00
   8   1     0.01   0.02  -0.00     0.11  -0.29   0.00    -0.00   0.00  -0.00
   9   8     0.02  -0.00  -0.00     0.08   0.02  -0.00    -0.00  -0.00  -0.00
  10   1     0.00   0.07  -0.00     0.01   0.13  -0.00    -0.00  -0.00   0.00
  11   1     0.07   0.06  -0.00     0.06  -0.05   0.00    -0.00  -0.00  -0.02
  12   1     0.04   0.00  -0.00     0.29  -0.14  -0.00    -0.00   0.00   0.00
  13   8     0.12  -0.06  -0.00    -0.04  -0.07   0.00    -0.00  -0.00  -0.03
  14   6     0.25  -0.19   0.00     0.01   0.04  -0.00     0.00  -0.00  -0.22
  15   1    -0.46   0.22  -0.13    -0.01  -0.04   0.03    -0.45  -0.09   0.09
  16   1    -0.26   0.48  -0.00     0.01  -0.01   0.00    -0.00  -0.00   0.71
  17   1    -0.46   0.22   0.13    -0.01  -0.04  -0.03     0.45   0.09   0.09
                     34                     35                     36
                        a                      a                      a 
 Frequencies --  1471.2132              1483.1173              1589.1626
 Red. masses --     2.3031                 9.6969                11.5616
 Frc consts  --     0.0000                 0.0000                 0.0000
 IR Inten    --    64.5311               312.5271                34.9187
 Raman Activ --     0.0000                 0.0000                 0.0000
 Depolar     --     0.0000                 0.0000                 0.0000
 Atom AN      X      Y      Z        X      Y      Z        X      Y      Z
   1   6     0.01  -0.03   0.00    -0.01  -0.17   0.00     0.25  -0.29   0.00
   2   6     0.06   0.09  -0.00     0.29   0.28  -0.00     0.06   0.32  -0.00
   3   6    -0.14  -0.05   0.00    -0.42   0.04   0.00     0.05  -0.48   0.00
   4   6     0.02  -0.13   0.00     0.00  -0.45   0.00    -0.20   0.23  -0.00
   5   6     0.06   0.07  -0.00     0.28   0.25  -0.00    -0.01  -0.27   0.00
   6   6    -0.04  -0.02   0.00    -0.16   0.01   0.00    -0.15   0.52  -0.00
   7   1    -0.05  -0.04   0.00    -0.18  -0.15   0.00     0.06  -0.02  -0.00
   8   1    -0.01  -0.01   0.00    -0.03  -0.11   0.00     0.01  -0.13   0.00
   9   8     0.00   0.05  -0.00     0.02   0.15  -0.00     0.01  -0.02   0.00
  10   1     0.00   0.00   0.00     0.00  -0.01  -0.00     0.00   0.05  -0.00
  11   1    -0.01   0.01  -0.00    -0.22  -0.17   0.00    -0.09  -0.01   0.00
  12   1    -0.04   0.01   0.00    -0.12  -0.01   0.00    -0.09  -0.02   0.00
  13   8     0.06   0.06  -0.00     0.12  -0.02  -0.00     0.02   0.04  -0.00
  14   6     0.12   0.17  -0.00    -0.02  -0.03  -0.00    -0.01  -0.02   0.00
  15   1    -0.17  -0.49   0.36     0.02   0.14  -0.10     0.00   0.00  -0.00
  16   1    -0.12   0.25   0.00     0.03  -0.05   0.00    -0.02   0.02   0.00
  17   1    -0.17  -0.49  -0.36     0.02   0.14   0.10     0.00   0.00   0.00
                     37                     38                     39
                        a                      a                      a 
 Frequencies --  1593.6333              2947.7610              2960.7332
 Red. masses --    11.5414                 1.9552                 1.4393
 Frc consts  --     0.0000                 0.0000                 0.0000
 IR Inten    --    33.1489                46.1305                44.6903
 Raman Activ --     0.0000                 0.0000                 0.0000
 Depolar     --     0.0000                 0.0000                 0.0000
 Atom AN      X      Y      Z        X      Y      Z        X      Y      Z
   1   6    -0.42   0.04   0.00     0.00   0.00  -0.00    -0.00   0.00   0.00
   2   6     0.38   0.22  -0.00    -0.00   0.00   0.00    -0.00   0.00  -0.00
   3   6    -0.20  -0.11   0.00    -0.00  -0.00   0.00    -0.00  -0.00  -0.00
   4   6     0.47   0.05  -0.00     0.00   0.00  -0.00     0.00   0.00   0.00
   5   6    -0.44  -0.25   0.00    -0.00  -0.00  -0.00    -0.00  -0.00   0.00
   6   6     0.21   0.06  -0.00     0.00   0.00  -0.00     0.00   0.00   0.00
   7   1     0.07   0.09  -0.00    -0.00   0.00   0.00    -0.00   0.00  -0.00
   8   1     0.05   0.02  -0.00    -0.00   0.00   0.00    -0.00  -0.00  -0.00
   9   8    -0.04   0.01   0.00     0.00  -0.00   0.00     0.00  -0.00  -0.00
  10   1    -0.00  -0.09   0.00    -0.00   0.00  -0.00    -0.00   0.00   0.00
  11   1    -0.06  -0.07   0.00     0.00  -0.00   0.00     0.01  -0.01  -0.00
  12   1     0.08  -0.05  -0.00    -0.00  -0.00   0.00    -0.00  -0.00   0.00
  13   8     0.00   0.01  -0.00     0.00  -0.00  -0.01     0.01  -0.02   0.00
  14   6     0.01  -0.01   0.00    -0.00  -0.00  -0.29    -0.04  -0.19   0.00
  15   1     0.00   0.01  -0.01     0.06   0.40   0.54     0.04   0.37   0.58
  16   1     0.00  -0.00   0.00     0.00  -0.00  -0.05     0.01  -0.01   0.00
  17   1     0.00   0.01   0.01    -0.06  -0.40   0.54     0.04   0.37  -0.58
                     40                     41                     42
                        a                      a                      a 
 Frequencies --  3034.3770              3089.0599              3097.4912
 Red. masses --     1.7051                 1.7619                 1.8218
 Frc consts  --     0.0000                 0.0000                 0.0000
 IR Inten    --    17.6190                12.6464                70.4150
 Raman Activ --     0.0000                 0.0000                 0.0000
 Depolar     --     0.0000                 0.0000                 0.0000
 Atom AN      X      Y      Z        X      Y      Z        X      Y      Z
   1   6     0.00   0.00  -0.00    -0.06  -0.20   0.00     0.04   0.13  -0.00
   2   6     0.00  -0.00   0.00    -0.03   0.03  -0.00     0.06  -0.07   0.00
   3   6    -0.00   0.00   0.00    -0.00   0.00  -0.00     0.00  -0.00  -0.00
   4   6    -0.00   0.00  -0.00    -0.00   0.00  -0.00    -0.00   0.01  -0.00
   5   6     0.00  -0.00  -0.00    -0.01   0.02  -0.00    -0.08   0.09  -0.00
   6   6     0.00   0.00  -0.00     0.15   0.03  -0.00     0.18   0.03  -0.00
   7   1    -0.00   0.00  -0.00     0.07  -0.09   0.00     0.29  -0.34   0.00
   8   1    -0.00  -0.00   0.00    -0.55  -0.11   0.00    -0.63  -0.12   0.00
   9   8     0.00  -0.00   0.00     0.00   0.00  -0.00     0.00  -0.00  -0.00
  10   1    -0.00  -0.00   0.00    -0.00   0.00   0.00    -0.00  -0.00   0.00
  11   1    -0.00   0.00  -0.00     0.12  -0.14   0.00    -0.22   0.26  -0.00
  12   1    -0.00  -0.00   0.00     0.24   0.72  -0.00    -0.14  -0.43   0.00
  13   8     0.01  -0.00  -0.00    -0.00  -0.00   0.00     0.00   0.00  -0.00
  14   6     0.22   0.13   0.00     0.00   0.00  -0.00    -0.00  -0.00   0.00
  15   1     0.03   0.03   0.01    -0.00  -0.00  -0.00     0.00   0.00   0.00
  16   1    -0.84  -0.48  -0.00    -0.00  -0.00  -0.00     0.00   0.00   0.00
  17   1     0.03   0.03  -0.01    -0.00  -0.00   0.00     0.00   0.00  -0.00
                     43                     44                     45
                        a                      a                      a 
 Frequencies --  3108.1233              3112.9765              3428.1181
 Red. masses --     1.8491                 1.8994                 1.8635
 Frc consts  --     0.0000                 0.0000                 0.0000
 IR Inten    --   111.9828                31.8694               193.2934
 Raman Activ --     0.0000                 0.0000                 0.0000
 Depolar     --     0.0000                 0.0000                 0.0000
 Atom AN      X      Y      Z        X      Y      Z        X      Y      Z
   1   6     0.01   0.04  -0.00    -0.03  -0.11   0.00    -0.00   0.00   0.00
   2   6    -0.12   0.14  -0.00     0.11  -0.13   0.00     0.00   0.00  -0.00
   3   6    -0.01  -0.00   0.00     0.01   0.00  -0.00    -0.00  -0.00   0.00
   4   6     0.00   0.01  -0.00     0.00   0.01  -0.00     0.01   0.01  -0.00
   5   6    -0.12   0.15  -0.00    -0.10   0.12  -0.00     0.00  -0.00   0.00
   6   6    -0.06  -0.01   0.00    -0.12  -0.02   0.00     0.00  -0.00  -0.00
   7   1     0.43  -0.51   0.00     0.34  -0.40   0.00    -0.01   0.01  -0.00
   8   1     0.19   0.04  -0.00     0.40   0.08  -0.00    -0.00   0.00   0.00
   9   8     0.00  -0.00  -0.00     0.00  -0.00   0.00     0.24   0.00  -0.00
  10   1    -0.01  -0.00   0.00    -0.01   0.00   0.00    -0.97  -0.04   0.00
  11   1     0.43  -0.50   0.00    -0.38   0.44  -0.00     0.00  -0.00   0.00
  12   1    -0.04  -0.11   0.00     0.11   0.35  -0.00    -0.00  -0.00   0.00
  13   8    -0.00   0.00  -0.00    -0.00  -0.00   0.00    -0.00   0.00  -0.00
  14   6     0.00   0.00  -0.00    -0.00  -0.00   0.00     0.00   0.00   0.00
  15   1    -0.00  -0.00  -0.00     0.00   0.00   0.00     0.00  -0.00  -0.00
  16   1    -0.00  -0.00  -0.00     0.00   0.00   0.00     0.00   0.00   0.00
  17   1    -0.00  -0.00   0.00     0.00   0.00  -0.00     0.00  -0.00   0.00
