      -----------------------------------------------------------      
     |                   =====================                   |     
     |                           x T B                           |     
     |                   =====================                   |     
     |                         S. Grimme                         |     
     |          Mulliken Center for Theoretical Chemistry        |     
     |                    University of Bonn                     |     
      -----------------------------------------------------------      

   * xtb version 6.4.1 (afa7bdf) compiled by 'ehlert@majestix' on 2021-06-10

   xtb is free software: you can redistribute it and/or modify it under
   the terms of the GNU Lesser General Public License as published by
   the Free Software Foundation, either version 3 of the License, or
   (at your option) any later version.
   
   xtb is distributed in the hope that it will be useful,
   but WITHOUT ANY WARRANTY; without even the implied warranty of
   MERCHANTABILITY or FITNESS FOR A PARTICULAR PURPOSE.  See the
   GNU Lesser General Public License for more details.
   
   Cite this work as:
   * C. Bannwarth, E. Caldeweyher, S. Ehlert, A. Hansen, P. Pracht,
     J. Seibert, S. Spicher, S. Grimme, WIREs Comput. Mol. Sci., 2020, 11,
     e01493. DOI: 10.1002/wcms.1493
   
   for GFN2-xTB:
   * C. Bannwarth, S. Ehlert and S. Grimme., J. Chem. Theory Comput., 2019,
     15, 1652-1671. DOI: 10.1021/acs.jctc.8b01176
   for GFN1-xTB:
   * S. Grimme, C. Bannwarth, P. Shushkov, J. Chem. Theory Comput., 2017,
     13, 1989-2009. DOI: 10.1021/acs.jctc.7b00118
   for GFN0-xTB:
   * P. Pracht, E. Caldeweyher, S. Ehlert, S. Grimme, ChemRxiv, 2019, preprint.
     DOI: 10.26434/chemrxiv.8326202.v1
   for GFN-FF:
   * S. Spicher and S. Grimme, Angew. Chem. Int. Ed., 2020, 59, 15665-15673.
     DOI: 10.1002/anie.202004239
   
   for DFT-D4:
   * E. Caldeweyher, C. Bannwarth and S. Grimme, J. Chem. Phys., 2017,
     147, 034112. DOI: 10.1063/1.4993215
   * E. Caldeweyher, S. Ehlert, A. Hansen, H. Neugebauer, S. Spicher,
     C. Bannwarth and S. Grimme, J. Chem. Phys., 2019, 150, 154122.
     DOI: 10.1063/1.5090222
   * E. Caldeweyher, J.-M. Mewes, S. Ehlert and S. Grimme, Phys. Chem. Chem. Phys.
     2020, 22, 8499-8512. DOI: 10.1039/D0CP00502A
   
   for sTDA-xTB:
   * S. Grimme and C. Bannwarth, J. Chem. Phys., 2016, 145, 054103.
     DOI: 10.1063/1.4959605
   
   in the mass-spec context:
   * V. Asgeirsson, C. Bauer and S. Grimme, Chem. Sci., 2017, 8, 4879.
     DOI: 10.1039/c7sc00601b
   * J. Koopman and S. Grimme, ACS Omega 2019, 4, 12, 15120-15133.
     DOI: 10.1021/acsomega.9b02011
   
   for metadynamics refer to:
   * S. Grimme, J. Chem. Theory Comput., 2019, 155, 2847-2862
     DOI: 10.1021/acs.jctc.9b00143
   
   for SPH calculations refer to:
   * S. Spicher and S. Grimme, J. Chem. Theory Comput., 2021, 17, 1701-1714
     DOI: 10.1021/acs.jctc.0c01306
   
   with help from (in alphabetical order)
   P. Atkinson, C. Bannwarth, F. Bohle, G. Brandenburg, E. Caldeweyher
   M. Checinski, S. Dohm, S. Ehlert, S. Ehrlich, I. Gerasimov, J. Koopman
   C. Lavigne, S. Lehtola, F. März, M. Müller, F. Musil, H. Neugebauer
   J. Pisarek, C. Plett, P. Pracht, J. Seibert, P. Shushkov, S. Spicher
   M. Stahn, M. Steiner, T. Strunk, J. Stückrath, T. Rose, and J. Unsleber
   
 * started run on 2021/11/15 at 09:23:07.654     

           -------------------------------------------------
          |                Calculation Setup                |
           -------------------------------------------------

          program call               : xtb 08_4-hydroxy-acetophenone.xyz --gfn2 --chrg 0 --uhf 0 --alpb water -P 1
          coordinate file            : 08_4-hydroxy-acetophenone.xyz
          omp threads                :                     1
          number of atoms            :                    18
          number of electrons        :                    52
          charge                     :                     0
          spin                       :                   0.0
          first test random number   :      0.07243861079089

   ID    Z sym.   atoms
    1    6 C      1-6, 12, 14
    2    8 O      7, 13
    3    1 H      8-11, 15-18

           -------------------------------------------------
          |                 G F N 2 - x T B                 |
           -------------------------------------------------

        Reference                      10.1021/acs.jctc.8b01176
      * Hamiltonian:
        H0-scaling (s, p, d)           1.850000    2.230000    2.230000
        zeta-weighting                 0.500000
      * Dispersion:
        s8                             2.700000
        a1                             0.520000
        a2                             5.000000
        s9                             5.000000
      * Repulsion:
        kExp                           1.500000    1.000000
        rExp                           1.000000
      * Coulomb:
        alpha                          2.000000
        third order                    shell-resolved
        anisotropic                    true
        a3                             3.000000
        a5                             4.000000
        cn-shift                       1.200000
        cn-exp                         4.000000
        max-rad                        5.000000

      * Solvation model:               ALPB
        Solvent                        water
        Parameter file                 internal GFN2-xTB/ALPB
        Dielectric constant                8.0200E+01
        Reference state                gsolv [1 M gas/solution]
        Free energy shift                  1.0808E-03 Eh       6.7819E-01 kcal/mol
        Temperature                        2.9815E+02 K
        Density                            1.0000E+00 kg/L
        Solvent mass                       1.8000E+01 g/mol
        Interaction kernel             P16
        Born radius scaling (c1)           1.4744E+00
        Born radii integrator          GBOBC
        Born offset                        0.0000E+00 a0       0.0000E+00 AA
        H-bond correction              true
        Ion screening                  false
        Surface tension                    1.0000E-05 Eh       1.5569E+01 dyn/cm
        Grid points                               230 per atom
q/qsh data taken from xtbrestart
CAMM data taken from xtbrestart

          ...................................................
          :                      SETUP                      :
          :.................................................:
          :  # basis functions                  48          :
          :  # atomic orbitals                  48          :
          :  # shells                           28          :
          :  # electrons                        52          :
          :  max. iterations                   250          :
          :  Hamiltonian                  GFN2-xTB          :
          :  restarted?                       true          :
          :  GBSA solvation                   true          :
          :  PC potential                    false          :
          :  electronic temp.          300.0000000     K    :
          :  accuracy                    1.0000000          :
          :  -> integral cutoff          0.2500000E+02      :
          :  -> integral neglect         0.1000000E-07      :
          :  -> SCF convergence          0.1000000E-05 Eh   :
          :  -> wf. convergence          0.1000000E-03 e    :
          :  Broyden damping             0.4000000          :
          ...................................................

 iter      E             dE          RMSdq      gap      omega  full diag
   1    -29.7400484 -0.297400E+02  0.991E-05    3.13       0.0  T
   2    -29.7400484 -0.630003E-10  0.487E-05    3.13     483.9  T
   3    -29.7400484 -0.126796E-10  0.324E-05    3.13     726.6  T

   *** convergence criteria satisfied after 3 iterations ***

         #    Occupation            Energy/Eh            Energy/eV
      -------------------------------------------------------------
         1        2.0000           -0.7168791             -19.5073
       ...           ...                  ...                  ...
        20        2.0000           -0.4698606             -12.7856
        21        2.0000           -0.4650801             -12.6555
        22        2.0000           -0.4579164             -12.4605
        23        2.0000           -0.4280960             -11.6491
        24        2.0000           -0.4153000             -11.3009
        25        2.0000           -0.3964877             -10.7890
        26        2.0000           -0.3947460             -10.7416 (HOMO)
        27                         -0.2797145              -7.6114 (LUMO)
        28                         -0.2344500              -6.3797
        29                         -0.1930255              -5.2525
        30                         -0.0934584              -2.5431
        31                          0.0610473               1.6612
       ...                                ...                  ...
        48                          0.6365521              17.3215
      -------------------------------------------------------------
                  HL-Gap            0.1150315 Eh            3.1302 eV
             Fermi-level           -0.3372303 Eh           -9.1765 eV

 SCC (total)                   0 d,  0 h,  0 min,  0.008 sec
 SCC setup                      ...        0 min,  0.000 sec (  5.155%)
 Dispersion                     ...        0 min,  0.000 sec (  1.559%)
 classical contributions        ...        0 min,  0.000 sec (  0.262%)
 integral evaluation            ...        0 min,  0.002 sec ( 20.907%)
 iterations                     ...        0 min,  0.002 sec ( 28.222%)
 molecular gradient             ...        0 min,  0.003 sec ( 41.770%)
 printout                       ...        0 min,  0.000 sec (  1.872%)

         :::::::::::::::::::::::::::::::::::::::::::::::::::::
         ::                     SUMMARY                     ::
         :::::::::::::::::::::::::::::::::::::::::::::::::::::
         :: total energy             -29.334804323932 Eh    ::
         :: total w/o Gsasa/hb       -29.330069356476 Eh    ::
         :: gradient norm              0.020595318031 Eh/a0 ::
         :: HOMO-LUMO gap              3.130165353570 eV    ::
         ::.................................................::
         :: SCC energy               -29.740048391811 Eh    ::
         :: -> isotropic ES            0.067343296239 Eh    ::
         :: -> anisotropic ES          0.001282768132 Eh    ::
         :: -> anisotropic XC          0.010748399649 Eh    ::
         :: -> dispersion             -0.014226801689 Eh    ::
         :: -> Gsolv                  -0.017571308076 Eh    ::
         ::    -> Gelec               -0.012836340621 Eh    ::
         ::    -> Gsasa                0.001853640023 Eh    ::
         ::    -> Ghb                 -0.007669367177 Eh    ::
         ::    -> Gshift               0.001080759698 Eh    ::
         :: repulsion energy           0.405239194486 Eh    ::
         :: add. restraining           0.000000000000 Eh    ::
         :: total charge               0.000000000000 e     ::
         :::::::::::::::::::::::::::::::::::::::::::::::::::::

           -------------------------------------------------
          |                Property Printout                |
           -------------------------------------------------

    * Orbital Energies and Occupations

         #    Occupation            Energy/Eh            Energy/eV
      -------------------------------------------------------------
         1        2.0000           -0.7168791             -19.5073
       ...           ...                  ...                  ...
        14        2.0000           -0.5286690             -14.3858
        15        2.0000           -0.5112444             -13.9117
        16        2.0000           -0.4984702             -13.5641
        17        2.0000           -0.4865302             -13.2392
        18        2.0000           -0.4787132             -13.0264
        19        2.0000           -0.4700719             -12.7913
        20        2.0000           -0.4698606             -12.7856
        21        2.0000           -0.4650801             -12.6555
        22        2.0000           -0.4579164             -12.4605
        23        2.0000           -0.4280960             -11.6491
        24        2.0000           -0.4153000             -11.3009
        25        2.0000           -0.3964877             -10.7890
        26        2.0000           -0.3947460             -10.7416 (HOMO)
        27                         -0.2797145              -7.6114 (LUMO)
        28                         -0.2344500              -6.3797
        29                         -0.1930255              -5.2525
        30                         -0.0934584              -2.5431
        31                          0.0610473               1.6612
        32                          0.0789515               2.1484
        33                          0.1307932               3.5591
        34                          0.1360067               3.7009
        35                          0.1410851               3.8391
        36                          0.1647487               4.4830
        37                          0.1838379               5.0025
       ...                                ...                  ...
        48                          0.6365521              17.3215
      -------------------------------------------------------------
                  HL-Gap            0.1150315 Eh            3.1302 eV
             Fermi-level           -0.3372303 Eh           -9.1765 eV

     #   Z          covCN         q      C6AA      α(0)
     1   6 C        2.963    -0.028    28.709     8.789
     2   6 C        2.920    -0.020    28.508     8.756
     3   6 C        2.909    -0.072    29.792     8.950
     4   6 C        2.844     0.157    24.589     8.127
     5   6 C        2.910    -0.058    29.450     8.899
     6   6 C        2.917    -0.032    28.799     8.800
     7   8 O        1.659    -0.438    21.594     6.273
     8   1 H        0.805     0.381     0.520     1.133
     9   1 H        0.925     0.055     2.257     2.350
    10   1 H        0.925     0.058     2.220     2.330
    11   1 H        0.925     0.068     2.108     2.270
    12   6 C        2.817     0.237    23.057     7.868
    13   8 O        0.857    -0.463    22.988     6.428
    14   6 C        3.750    -0.152    23.495     6.913
    15   1 H        0.924     0.086     1.921     2.168
    16   1 H        0.924     0.086     1.921     2.168
    17   1 H        0.924     0.070     2.089     2.260
    18   1 H        0.925     0.066     2.132     2.284

 Mol. C6AA /au·bohr⁶  :       3806.415694
 Mol. C8AA /au·bohr⁸  :      91772.922494
 Mol. α(0) /au        :         96.763363


Wiberg/Mayer (AO) data.
largest (>0.10) Wiberg bond orders for each atom

 ---------------------------------------------------------------------------
     #   Z sym  total        # sym  WBO       # sym  WBO       # sym  WBO
 ---------------------------------------------------------------------------
     1   6 C    3.986 --     2 C    1.359     6 C    1.359    12 C    1.057
     2   6 C    3.989 --     3 C    1.482     1 C    1.359     9 H    0.966
     3   6 C    3.986 --     2 C    1.482     4 C    1.349    10 H    0.963
     4   6 C    3.941 --     3 C    1.349     5 C    1.345     7 O    1.102
     5   6 C    3.987 --     6 C    1.486     4 C    1.345    11 H    0.966
     6   6 C    3.988 --     5 C    1.486     1 C    1.359    18 H    0.964
     7   8 O    2.098 --     4 C    1.102     8 H    0.835
     8   1 H    0.855 --     7 O    0.835
     9   1 H    0.997 --     2 C    0.966
    10   1 H    0.996 --     3 C    0.963
    11   1 H    0.995 --     5 C    0.966
    12   6 C    3.904 --    13 O    1.743     1 C    1.057    14 C    1.014
    13   8 O    1.981 --    12 C    1.743
    14   6 C    3.991 --    12 C    1.014    17 H    0.983    16 H    0.956
                            15 H    0.956
    15   1 H    0.992 --    14 C    0.956
    16   1 H    0.992 --    14 C    0.956
    17   1 H    0.995 --    14 C    0.983
    18   1 H    0.996 --     6 C    0.964
 ---------------------------------------------------------------------------

Topologies differ in total number of bonds
Writing topology from bond orders to xtbtopo.mol

molecular dipole:
                 x           y           z       tot (Debye)
 q only:       -1.418      -0.840      -0.000
   full:       -1.442      -0.743      -0.000       4.122
molecular quadrupole (traceless):
                xx          xy          yy          xz          yz          zz
 q only:       -0.540     -17.729       1.638       0.002      -0.001      -1.098
  q+dip:       -0.465     -20.497       3.819       0.002      -0.001      -3.354
   full:       -1.702     -20.580       1.951       0.002      -0.001      -0.249


           -------------------------------------------------
          | TOTAL ENERGY              -29.334804323932 Eh   |
          | GRADIENT NORM               0.020595318031 Eh/α |
          | HOMO-LUMO GAP               3.130165353570 eV   |
           -------------------------------------------------

------------------------------------------------------------------------
 * finished run on 2021/11/15 at 09:23:07.685     
------------------------------------------------------------------------
 total:
 * wall-time:     0 d,  0 h,  0 min,  0.031 sec
 *  cpu-time:     0 d,  0 h,  0 min,  0.031 sec
 * ratio c/w:     1.009 speedup
 SCF:
 * wall-time:     0 d,  0 h,  0 min,  0.008 sec
 *  cpu-time:     0 d,  0 h,  0 min,  0.016 sec
 * ratio c/w:     1.898 speedup

