      -----------------------------------------------------------      
     |                   =====================                   |     
     |                           x T B                           |     
     |                   =====================                   |     
     |                         S. Grimme                         |     
     |          Mulliken Center for Theoretical Chemistry        |     
     |                    University of Bonn                     |     
      -----------------------------------------------------------      

   * xtb version 6.4.1 (afa7bdf) compiled by 'ehlert@majestix' on 2021-06-10

   xtb is free software: you can redistribute it and/or modify it under
   the terms of the GNU Lesser General Public License as published by
   the Free Software Foundation, either version 3 of the License, or
   (at your option) any later version.
   
   xtb is distributed in the hope that it will be useful,
   but WITHOUT ANY WARRANTY; without even the implied warranty of
   MERCHANTABILITY or FITNESS FOR A PARTICULAR PURPOSE.  See the
   GNU Lesser General Public License for more details.
   
   Cite this work as:
   * C. Bannwarth, E. Caldeweyher, S. Ehlert, A. Hansen, P. Pracht,
     J. Seibert, S. Spicher, S. Grimme, WIREs Comput. Mol. Sci., 2020, 11,
     e01493. DOI: 10.1002/wcms.1493
   
   for GFN2-xTB:
   * C. Bannwarth, S. Ehlert and S. Grimme., J. Chem. Theory Comput., 2019,
     15, 1652-1671. DOI: 10.1021/acs.jctc.8b01176
   for GFN1-xTB:
   * S. Grimme, C. Bannwarth, P. Shushkov, J. Chem. Theory Comput., 2017,
     13, 1989-2009. DOI: 10.1021/acs.jctc.7b00118
   for GFN0-xTB:
   * P. Pracht, E. Caldeweyher, S. Ehlert, S. Grimme, ChemRxiv, 2019, preprint.
     DOI: 10.26434/chemrxiv.8326202.v1
   for GFN-FF:
   * S. Spicher and S. Grimme, Angew. Chem. Int. Ed., 2020, 59, 15665-15673.
     DOI: 10.1002/anie.202004239
   
   for DFT-D4:
   * E. Caldeweyher, C. Bannwarth and S. Grimme, J. Chem. Phys., 2017,
     147, 034112. DOI: 10.1063/1.4993215
   * E. Caldeweyher, S. Ehlert, A. Hansen, H. Neugebauer, S. Spicher,
     C. Bannwarth and S. Grimme, J. Chem. Phys., 2019, 150, 154122.
     DOI: 10.1063/1.5090222
   * E. Caldeweyher, J.-M. Mewes, S. Ehlert and S. Grimme, Phys. Chem. Chem. Phys.
     2020, 22, 8499-8512. DOI: 10.1039/D0CP00502A
   
   for sTDA-xTB:
   * S. Grimme and C. Bannwarth, J. Chem. Phys., 2016, 145, 054103.
     DOI: 10.1063/1.4959605
   
   in the mass-spec context:
   * V. Asgeirsson, C. Bauer and S. Grimme, Chem. Sci., 2017, 8, 4879.
     DOI: 10.1039/c7sc00601b
   * J. Koopman and S. Grimme, ACS Omega 2019, 4, 12, 15120-15133.
     DOI: 10.1021/acsomega.9b02011
   
   for metadynamics refer to:
   * S. Grimme, J. Chem. Theory Comput., 2019, 155, 2847-2862
     DOI: 10.1021/acs.jctc.9b00143
   
   for SPH calculations refer to:
   * S. Spicher and S. Grimme, J. Chem. Theory Comput., 2021, 17, 1701-1714
     DOI: 10.1021/acs.jctc.0c01306
   
   with help from (in alphabetical order)
   P. Atkinson, C. Bannwarth, F. Bohle, G. Brandenburg, E. Caldeweyher
   M. Checinski, S. Dohm, S. Ehlert, S. Ehrlich, I. Gerasimov, J. Koopman
   C. Lavigne, S. Lehtola, F. März, M. Müller, F. Musil, H. Neugebauer
   J. Pisarek, C. Plett, P. Pracht, J. Seibert, P. Shushkov, S. Spicher
   M. Stahn, M. Steiner, T. Strunk, J. Stückrath, T. Rose, and J. Unsleber
   
 * started run on 2021/11/15 at 09:36:17.797     

           -------------------------------------------------
          |                Calculation Setup                |
           -------------------------------------------------

          program call               : xtb 23_4-methoxyaniline.xyz --gfn2 --chrg 0 --uhf 0 --alpb water --ohess -P 1
          coordinate file            : 23_4-methoxyaniline.xyz
          omp threads                :                     1
          number of atoms            :                    18
          number of electrons        :                    48
          charge                     :                     0
          spin                       :                   0.0
          first test random number   :      0.30032652920473

   ID    Z sym.   atoms
    1    6 C      1-6, 15
    2    1 H      7, 8, 10-13, 16-18
    3    7 N      9
    4    8 O      14

           -------------------------------------------------
          |                 G F N 2 - x T B                 |
           -------------------------------------------------

        Reference                      10.1021/acs.jctc.8b01176
      * Hamiltonian:
        H0-scaling (s, p, d)           1.850000    2.230000    2.230000
        zeta-weighting                 0.500000
      * Dispersion:
        s8                             2.700000
        a1                             0.520000
        a2                             5.000000
        s9                             5.000000
      * Repulsion:
        kExp                           1.500000    1.000000
        rExp                           1.000000
      * Coulomb:
        alpha                          2.000000
        third order                    shell-resolved
        anisotropic                    true
        a3                             3.000000
        a5                             4.000000
        cn-shift                       1.200000
        cn-exp                         4.000000
        max-rad                        5.000000

      * Solvation model:               ALPB
        Solvent                        water
        Parameter file                 internal GFN2-xTB/ALPB
        Dielectric constant                8.0200E+01
        Reference state                gsolv [1 M gas/solution]
        Free energy shift                  1.0808E-03 Eh       6.7819E-01 kcal/mol
        Temperature                        2.9815E+02 K
        Density                            1.0000E+00 kg/L
        Solvent mass                       1.8000E+01 g/mol
        Interaction kernel             P16
        Born radius scaling (c1)           1.4744E+00
        Born radii integrator          GBOBC
        Born offset                        0.0000E+00 a0       0.0000E+00 AA
        H-bond correction              true
        Ion screening                  false
        Surface tension                    1.0000E-05 Eh       1.5569E+01 dyn/cm
        Grid points                               230 per atom

          ...................................................
          :                      SETUP                      :
          :.................................................:
          :  # basis functions                  45          :
          :  # atomic orbitals                  45          :
          :  # shells                           27          :
          :  # electrons                        48          :
          :  max. iterations                   250          :
          :  Hamiltonian                  GFN2-xTB          :
          :  restarted?                      false          :
          :  GBSA solvation                   true          :
          :  PC potential                    false          :
          :  electronic temp.          300.0000000     K    :
          :  accuracy                    1.0000000          :
          :  -> integral cutoff          0.2500000E+02      :
          :  -> integral neglect         0.1000000E-07      :
          :  -> SCF convergence          0.1000000E-05 Eh   :
          :  -> wf. convergence          0.1000000E-03 e    :
          :  Broyden damping             0.4000000          :
          ...................................................

 iter      E             dE          RMSdq      gap      omega  full diag
   1    -26.9133566 -0.269134E+02  0.443E+00    3.13       0.0  T
   2    -26.9338748 -0.205182E-01  0.255E+00    3.53       1.0  T
   3    -26.9332811  0.593733E-03  0.637E-01    3.47       1.0  T
   4    -26.9348873 -0.160626E-02  0.209E-01    3.53       1.0  T
   5    -26.9353398 -0.452453E-03  0.717E-02    3.52       1.0  T
   6    -26.9353459 -0.615057E-05  0.289E-02    3.52       1.0  T
   7    -26.9353469 -0.942702E-06  0.128E-02    3.53       1.8  T
   8    -26.9353479 -0.100056E-05  0.392E-03    3.52       6.0  T
   9    -26.9353479 -0.240809E-07  0.232E-03    3.52      10.2  T
  10    -26.9353479 -0.214475E-07  0.834E-04    3.52      28.3  T
  11    -26.9353479 -0.245645E-08  0.362E-04    3.52      65.1  T

   *** convergence criteria satisfied after 11 iterations ***

         #    Occupation            Energy/Eh            Energy/eV
      -------------------------------------------------------------
         1        2.0000           -0.7090102             -19.2931
       ...           ...                  ...                  ...
        18        2.0000           -0.4601850             -12.5223
        19        2.0000           -0.4553331             -12.3902
        20        2.0000           -0.4443942             -12.0926
        21        2.0000           -0.4152826             -11.3004
        22        2.0000           -0.4085991             -11.1185
        23        2.0000           -0.3971735             -10.8076
        24        2.0000           -0.3492310              -9.5031 (HOMO)
        25                         -0.2197072              -5.9785 (LUMO)
        26                         -0.1991581              -5.4194
        27                         -0.0849502              -2.3116
        28                          0.0201141               0.5473
        29                          0.0569715               1.5503
       ...                                ...                  ...
        45                          0.6480473              17.6343
      -------------------------------------------------------------
                  HL-Gap            0.1295238 Eh            3.5245 eV
             Fermi-level           -0.2844691 Eh           -7.7408 eV

 SCC (total)                   0 d,  0 h,  0 min,  0.011 sec
 SCC setup                      ...        0 min,  0.000 sec (  3.930%)
 Dispersion                     ...        0 min,  0.000 sec (  1.159%)
 classical contributions        ...        0 min,  0.000 sec (  0.204%)
 integral evaluation            ...        0 min,  0.002 sec ( 14.322%)
 iterations                     ...        0 min,  0.004 sec ( 41.172%)
 molecular gradient             ...        0 min,  0.004 sec ( 36.562%)
 printout                       ...        0 min,  0.000 sec (  2.421%)

         :::::::::::::::::::::::::::::::::::::::::::::::::::::
         ::                     SUMMARY                     ::
         :::::::::::::::::::::::::::::::::::::::::::::::::::::
         :: total energy             -26.554024879465 Eh    ::
         :: total w/o Gsasa/hb       -26.549820037562 Eh    ::
         :: gradient norm              0.020710462445 Eh/a0 ::
         :: HOMO-LUMO gap              3.524521435770 eV    ::
         ::.................................................::
         :: SCC energy               -26.935347938544 Eh    ::
         :: -> isotropic ES            0.031997373932 Eh    ::
         :: -> anisotropic ES          0.005875804941 Eh    ::
         :: -> anisotropic XC          0.012043160674 Eh    ::
         :: -> dispersion             -0.013471885927 Eh    ::
         :: -> Gsolv                  -0.009000296912 Eh    ::
         ::    -> Gelec               -0.004795455008 Eh    ::
         ::    -> Gsasa               -0.001879799343 Eh    ::
         ::    -> Ghb                 -0.003405802258 Eh    ::
         ::    -> Gshift               0.001080759698 Eh    ::
         :: repulsion energy           0.381330024619 Eh    ::
         :: add. restraining           0.000000000000 Eh    ::
         :: total charge               0.000000000000 e     ::
         :::::::::::::::::::::::::::::::::::::::::::::::::::::

      ----------------------------------------------------------- 
     |                   =====================                   |
     |                        A N C O P T                        |
     |                   =====================                   |
     |               Approximate Normal Coordinate               |
     |                Rational Function Optimizer                |
      ----------------------------------------------------------- 

          ...................................................
          :                      SETUP                      :
          :.................................................:
          :   optimization level            normal          :
          :   max. optcycles                   200          :
          :   ANC micro-cycles                  20          :
          :   degrees of freedom                48          :
          :.................................................:
          :   RF solver                   davidson          :
          :   write xtbopt.log                true          :
          :   linear?                        false          :
          :   energy convergence         0.5000000E-05 Eh   :
          :   grad. convergence          0.1000000E-02 Eh/α :
          :   maximium RF displ.         1.0000000          :
          :   Hlow (freq-cutoff)         0.1000000E-01      :
          :   Hmax (freq-cutoff)         5.0000000          :
          :   S6 in model hess.         20.0000000          :
          ...................................................

generating ANC from model Hessian ...
Using Lindh-Hessian (1995)
 Shifting diagonal of input Hessian by   8.091144053132970E-003
 Lowest  eigenvalues of input Hessian
    0.000000    0.000000    0.000000    0.000000    0.000000    0.000000
    0.010000    0.012625    0.015356    0.018990    0.021406    0.024964
    0.028776    0.035151    0.036660    0.045107    0.062180    0.072462
 Highest eigenvalues
    1.530456    1.612917    1.825994    1.871881    1.978840    2.084808
 

........................................................................
.............................. CYCLE    1 ..............................
........................................................................
   1    -26.9353479 -0.269353E+02  0.130E-04    3.52       0.0  T
   2    -26.9353479 -0.751719E-10  0.873E-05    3.52     269.9  T
   3    -26.9353479 -0.247411E-10  0.598E-05    3.52     394.2  T
     SCC iter.                  ...        0 min,  0.002 sec
     gradient                   ...        0 min,  0.003 sec
 * total energy  :   -26.5540249 Eh     change       -0.4242793E-09 Eh
   gradient norm :     0.0207119 Eh/α   predicted     0.0000000E+00 (-100.00%)
   displ. norm   :     0.1041090 α      lambda       -0.1482403E-02
   maximum displ.:     0.0520487 α      in ANC's #10, #25, #12, ...

........................................................................
.............................. CYCLE    2 ..............................
........................................................................
   1    -26.9499666 -0.269500E+02  0.112E-01    3.55       0.0  T
   2    -26.9499745 -0.791358E-05  0.664E-02    3.56       1.0  T
   3    -26.9499703  0.425507E-05  0.327E-02    3.56       1.0  T
   4    -26.9499778 -0.755873E-05  0.309E-03    3.56       7.6  T
   5    -26.9499779 -0.501483E-07  0.175E-03    3.56      13.5  T
   6    -26.9499779 -0.839504E-08  0.100E-03    3.56      23.5  T
   7    -26.9499779 -0.303265E-08  0.309E-04    3.56      76.2  T
   8    -26.9499779 -0.307057E-09  0.177E-04    3.56     133.1  T
     SCC iter.                  ...        0 min,  0.003 sec
     gradient                   ...        0 min,  0.003 sec
 * total energy  :   -26.5549840 Eh     change       -0.9591505E-03 Eh
   gradient norm :     0.0090333 Eh/α   predicted    -0.7492341E-03 ( -21.89%)
   displ. norm   :     0.0648236 α      lambda       -0.3314428E-03
   maximum displ.:     0.0257957 α      in ANC's #3, #10, #25, ...

........................................................................
.............................. CYCLE    3 ..............................
........................................................................
   1    -26.9555595 -0.269556E+02  0.708E-02    3.54       0.0  T
   2    -26.9555681 -0.859239E-05  0.400E-02    3.56       1.0  T
   3    -26.9555691 -0.942484E-06  0.244E-02    3.56       1.0  T
   4    -26.9555713 -0.220375E-05  0.285E-03    3.56       8.3  T
   5    -26.9555713 -0.437503E-07  0.151E-03    3.56      15.6  T
   6    -26.9555713 -0.741358E-08  0.928E-04    3.56      25.4  T
   7    -26.9555713 -0.273084E-08  0.281E-04    3.56      83.9  T
     SCC iter.                  ...        0 min,  0.003 sec
     gradient                   ...        0 min,  0.003 sec
 * total energy  :   -26.5552010 Eh     change       -0.2169897E-03 Eh
   gradient norm :     0.0056642 Eh/α   predicted    -0.1664175E-03 ( -23.31%)
   displ. norm   :     0.0521011 α      lambda       -0.1315805E-03
   maximum displ.:     0.0233307 α      in ANC's #3, #4, #27, ...

........................................................................
.............................. CYCLE    4 ..............................
........................................................................
   1    -26.9565639 -0.269566E+02  0.532E-02    3.53       0.0  T
   2    -26.9565703 -0.640288E-05  0.292E-02    3.54       1.0  T
   3    -26.9565715 -0.116299E-05  0.185E-02    3.54       1.3  T
   4    -26.9565726 -0.107392E-05  0.264E-03    3.54       8.9  T
   5    -26.9565726 -0.286897E-07  0.134E-03    3.54      17.6  T
   6    -26.9565726 -0.585107E-08  0.770E-04    3.54      30.6  T
   7    -26.9565726 -0.199253E-08  0.251E-04    3.54      93.9  T
     SCC iter.                  ...        0 min,  0.003 sec
     gradient                   ...        0 min,  0.003 sec
 * total energy  :   -26.5552951 Eh     change       -0.9406067E-04 Eh
   gradient norm :     0.0037829 Eh/α   predicted    -0.6596959E-04 ( -29.86%)
   displ. norm   :     0.0490959 α      lambda       -0.7516544E-04
   maximum displ.:     0.0229106 α      in ANC's #4, #1, #3, ...

........................................................................
.............................. CYCLE    5 ..............................
........................................................................
   1    -26.9558912 -0.269559E+02  0.461E-02    3.51       0.0  T
   2    -26.9558954 -0.419792E-05  0.251E-02    3.52       1.0  T
   3    -26.9558960 -0.646293E-06  0.160E-02    3.52       1.5  T
   4    -26.9558969 -0.893677E-06  0.239E-03    3.52       9.8  T
   5    -26.9558969 -0.177403E-07  0.119E-03    3.52      19.7  T
   6    -26.9558969 -0.436467E-08  0.616E-04    3.52      38.3  T
   7    -26.9558969 -0.144244E-08  0.204E-04    3.52     115.3  T
     SCC iter.                  ...        0 min,  0.003 sec
     gradient                   ...        0 min,  0.003 sec
 * total energy  :   -26.5553422 Eh     change       -0.4709343E-04 Eh
   gradient norm :     0.0018195 Eh/α   predicted    -0.3767271E-04 ( -20.00%)
   displ. norm   :     0.0344246 α      lambda       -0.1228925E-04
   maximum displ.:     0.0225292 α      in ANC's #1, #4, #2, ...

........................................................................
.............................. CYCLE    6 ..............................
........................................................................
   1    -26.9553048 -0.269553E+02  0.254E-02    3.51       0.0  T
   2    -26.9553056 -0.799539E-06  0.140E-02    3.51       1.7  T
   3    -26.9553056  0.614779E-08  0.844E-03    3.51       2.8  T
   4    -26.9553060 -0.336863E-06  0.127E-03    3.51      18.6  T
   5    -26.9553060 -0.279167E-08  0.603E-04    3.51      39.1  T
   6    -26.9553060 -0.152357E-08  0.243E-04    3.51      97.1  T
     SCC iter.                  ...        0 min,  0.003 sec
     gradient                   ...        0 min,  0.003 sec
 * total energy  :   -26.5553505 Eh     change       -0.8357097E-05 Eh
   gradient norm :     0.0005863 Eh/α   predicted    -0.6147930E-05 ( -26.43%)
   displ. norm   :     0.0112428 α      lambda       -0.1402991E-05
   maximum displ.:     0.0073512 α      in ANC's #1, #3, #2, ...

........................................................................
.............................. CYCLE    7 ..............................
........................................................................
   1    -26.9555598 -0.269556E+02  0.554E-03    3.52       0.0  T
   2    -26.9555598 -0.259972E-07  0.325E-03    3.51       7.3  T
   3    -26.9555598  0.785151E-08  0.163E-03    3.51      14.4  T
   4    -26.9555598 -0.154613E-07  0.197E-04    3.51     119.5  T
   5    -26.9555598 -0.187349E-09  0.103E-04    3.51     229.0  T
     SCC iter.                  ...        0 min,  0.002 sec
     gradient                   ...        0 min,  0.003 sec
 * total energy  :   -26.5553520 Eh     change       -0.1474001E-05 Eh
   gradient norm :     0.0001924 Eh/α   predicted    -0.7003240E-06 ( -52.49%)
   displ. norm   :     0.0126023 α      lambda       -0.5985937E-06
   maximum displ.:     0.0098988 α      in ANC's #1, #3, #2, ...

   *** GEOMETRY OPTIMIZATION CONVERGED AFTER 7 ITERATIONS ***

------------------------------------------------------------------------
 total energy gain   :        -0.0013271 Eh       -0.8328 kcal/mol
 total RMSD          :         0.0599664 a0        0.0317 Å
 total power (kW/mol):        -0.4977669 (step)  -57.9076 (real)
------------------------------------------------------------------------

 ANCopt (total)                0 d,  0 h,  0 min,  0.060 sec
 optimizer setup                ...        0 min,  0.000 sec (  0.370%)
 model hessian                  ...        0 min,  0.002 sec (  3.962%)
 ANC generation                 ...        0 min,  0.000 sec (  0.757%)
 coordinate transformation      ...        0 min,  0.000 sec (  0.082%)
 single point calculation       ...        0 min,  0.054 sec ( 90.528%)
 optimization log               ...        0 min,  0.001 sec (  2.260%)
 hessian update                 ...        0 min,  0.000 sec (  0.085%)
 rational function              ...        0 min,  0.001 sec (  1.279%)

================
 final structure:
================
18
 xtb: 6.4.1 (afa7bdf)
C         0.93512263447510    0.27034669264293    0.00057960697358
C         0.06832492335281    1.36187294262306    0.00461825415242
C        -1.29612363681206    1.17615379419770    0.01511079403890
C        -1.84383562553818   -0.11020693756323    0.02048266167185
C        -0.96789124052580   -1.19405269063567    0.01593699960612
C         0.40392299802167   -1.01177638348255    0.00502938281777
H         1.04382444317617   -1.87984417809864    0.00256599216882
H        -1.36594480635481   -2.19813048087200    0.01849548008239
N        -3.20977930781611   -0.29838800659853   -0.04405375327601
H        -3.54205321228511   -1.19864831046679    0.26035560836275
H        -3.77186913044482    0.47989320150776    0.25898293930557
H         0.49401996853014    2.35327139168722    0.00217858198406
H        -1.95243855118799    2.03361703009988    0.01722274353446
O         2.27960792947147    0.57201469728125   -0.00449400304954
C         3.20271376731537   -0.49580654168094   -0.00328152349291
H         4.18446564188037   -0.02695890237495   -0.00426037465659
H         3.09295668425653   -1.11467197228905    0.89217882572056
H         3.09238752048527   -1.11746934597746   -0.89666421594421
 
 Bond Distances (Angstroems)
 ---------------------------
C1-C2=1.3938         C1-C6=1.3878         C1-O14=1.3779        C2-C1=1.3938         C2-C3=1.3771         C2-H12=1.0789        
C3-C2=1.3771         C3-C4=1.3981         C3-H13=1.0798        C4-C3=1.3981         C4-C5=1.3936         C4-N9=1.3804         
C5-C4=1.3936         C5-C6=1.3839         C5-H8=1.0801         C6-C1=1.3878         C6-C5=1.3839         C6-H7=1.0784         
H7-C6=1.0784         H8-C5=1.0801         N9-C4=1.3804         N9-H10=1.0067        N9-H11=1.0067        H10-N9=1.0067        
H11-N9=1.0067        H12-C2=1.0789        H13-C3=1.0798        O14-C1=1.3779        O14-C15=1.4115       C15-O14=1.4115       
C15-H16=1.0880       C15-H17=1.0940       C15-H18=1.0940       H16-C15=1.0880       H17-C15=1.0940       H18-C15=1.0940       
 C  H  Rav=1.0847 sigma=0.0066  Rmin=1.0784  Rmax=1.0940     7
 C  C  Rav=1.3891 sigma=0.0070  Rmin=1.3771  Rmax=1.3981     6
 N  H  Rav=1.0067 sigma=0.0000  Rmin=1.0067  Rmax=1.0067     2
 N  C  Rav=1.3804 sigma=0.0000  Rmin=1.3804  Rmax=1.3804     1
 O  C  Rav=1.3947 sigma=0.0168  Rmin=1.3779  Rmax=1.4115     2
 
 selected bond angles (degree)
 --------------------
C6-C1-C2=119.04                O14-C1-C2=115.81               O14-C1-C6=125.15               C3-C2-C1=120.70                
H12-C2-C1=118.31               H12-C2-C3=120.99               C4-C3-C2=120.82                H13-C3-C2=119.68               
H13-C3-C4=119.50               C5-C4-C3=117.99                N9-C4-C3=120.86                N9-C4-C5=121.05                
C6-C5-C4=121.38                H8-C5-C4=119.43                H8-C5-C6=119.19                C5-C6-C1=120.07                
H7-C6-C1=121.10                H7-C6-C5=118.83                H10-N9-C4=115.75               H11-N9-C4=115.66               
H11-N9-H10=114.58              
 
 selected dihedral angles (degree)
 ---------------------------------
C3-C2-C1-C6=  0.11            C3-C2-C1-O14=180.26           H12-C2-C1-C6=179.93           H12-C2-C1-O14=  0.08          
C4-C3-C2-C1=359.93            C4-C3-C2-H12=180.11           H13-C3-C2-C1=180.05           H13-C3-C2-H12=  0.23          
C5-C4-C3-C2=  0.05            C5-C4-C3-H13=179.92           N9-C4-C3-C2=183.63            N9-C4-C3-H13=  3.51           
C6-C5-C4-C3=359.93            C6-C5-C4-N9=176.34            H8-C5-C4-C3=180.09            H8-C5-C4-N9=356.50            
C5-C6-C1-C2=359.88            C5-C6-C1-O14=179.71           H7-C6-C1-C2=180.03            H7-C6-C1-O14=359.87           
C1-C6-C5-C4=  0.11            C1-C6-C5-H8=179.95            H7-C6-C5-C4=179.96            H7-C6-C5-H8=359.80            
H10-N9-C4-C3=199.16           H10-N9-C4-C5= 22.85           H11-N9-C4-C3=337.24           H11-N9-C4-C5=160.93           
           -------------------------------------------------
          |                Final Singlepoint                |
           -------------------------------------------------

          ...................................................
          :                      SETUP                      :
          :.................................................:
          :  # basis functions                  45          :
          :  # atomic orbitals                  45          :
          :  # shells                           27          :
          :  # electrons                        48          :
          :  max. iterations                   250          :
          :  Hamiltonian                  GFN2-xTB          :
          :  restarted?                      false          :
          :  GBSA solvation                   true          :
          :  PC potential                    false          :
          :  electronic temp.          300.0000000     K    :
          :  accuracy                    1.0000000          :
          :  -> integral cutoff          0.2500000E+02      :
          :  -> integral neglect         0.1000000E-07      :
          :  -> SCF convergence          0.1000000E-05 Eh   :
          :  -> wf. convergence          0.1000000E-03 e    :
          :  Broyden damping             0.4000000          :
          ...................................................

 iter      E             dE          RMSdq      gap      omega  full diag
   1    -26.9555598 -0.269556E+02  0.628E-05    3.51       0.0  T
   2    -26.9555598 -0.110667E-10  0.424E-05    3.51     555.7  T
   3    -26.9555598 -0.338218E-11  0.285E-05    3.51     827.6  T

   *** convergence criteria satisfied after 3 iterations ***

         #    Occupation            Energy/Eh            Energy/eV
      -------------------------------------------------------------
         1        2.0000           -0.7083693             -19.2757
       ...           ...                  ...                  ...
        18        2.0000           -0.4593840             -12.5005
        19        2.0000           -0.4550053             -12.3813
        20        2.0000           -0.4435887             -12.0707
        21        2.0000           -0.4134935             -11.2517
        22        2.0000           -0.4080977             -11.1049
        23        2.0000           -0.3969955             -10.8028
        24        2.0000           -0.3443859              -9.3712 (HOMO)
        25                         -0.2152158              -5.8563 (LUMO)
        26                         -0.1936440              -5.2693
        27                         -0.0772529              -2.1022
        28                          0.0277055               0.7539
        29                          0.0579087               1.5758
       ...                                ...                  ...
        45                          0.6756690              18.3859
      -------------------------------------------------------------
                  HL-Gap            0.1291701 Eh            3.5149 eV
             Fermi-level           -0.2798009 Eh           -7.6138 eV

 SCC (total)                   0 d,  0 h,  0 min,  0.007 sec
 SCC setup                      ...        0 min,  0.000 sec (  5.039%)
 Dispersion                     ...        0 min,  0.000 sec (  0.625%)
 classical contributions        ...        0 min,  0.000 sec (  0.206%)
 integral evaluation            ...        0 min,  0.001 sec ( 20.885%)
 iterations                     ...        0 min,  0.002 sec ( 26.368%)
 molecular gradient             ...        0 min,  0.003 sec ( 44.460%)
 printout                       ...        0 min,  0.000 sec (  2.086%)

         :::::::::::::::::::::::::::::::::::::::::::::::::::::
         ::                     SUMMARY                     ::
         :::::::::::::::::::::::::::::::::::::::::::::::::::::
         :: total energy             -26.555352005267 Eh    ::
         :: total w/o Gsasa/hb       -26.551145878886 Eh    ::
         :: gradient norm              0.000193365245 Eh/a0 ::
         :: HOMO-LUMO gap              3.514896963624 eV    ::
         ::.................................................::
         :: SCC energy               -26.955559815042 Eh    ::
         :: -> isotropic ES            0.032365885968 Eh    ::
         :: -> anisotropic ES          0.005259287495 Eh    ::
         :: -> anisotropic XC          0.011205916631 Eh    ::
         :: -> dispersion             -0.013536338982 Eh    ::
         :: -> Gsolv                  -0.009303924629 Eh    ::
         ::    -> Gelec               -0.005097798248 Eh    ::
         ::    -> Gsasa               -0.001747157129 Eh    ::
         ::    -> Ghb                 -0.003539728950 Eh    ::
         ::    -> Gshift               0.001080759698 Eh    ::
         :: repulsion energy           0.400215483383 Eh    ::
         :: add. restraining           0.000000000000 Eh    ::
         :: total charge              -0.000000000000 e     ::
         :::::::::::::::::::::::::::::::::::::::::::::::::::::

           ------------------------------------------------- 
          |                Numerical Hessian                |
           ------------------------------------------------- 
step length          :   0.00500
SCC accuracy         :   0.30000
Hessian scale factor :   1.00000
frozen atoms in %    :   0.00000    0
RMS gradient         :   0.00019
estimated CPU  time      0.01 min
estimated wall time      0.01 min

writing file <hessian>.

 projected vibrational frequencies (cm⁻¹)
eigval :       -0.00    -0.00    -0.00     0.00     0.00     0.00
eigval :       72.94   144.50   219.73   233.99   349.52   359.08
eigval :      364.78   390.99   404.92   489.53   500.35   554.77
eigval :      613.04   661.43   736.95   792.07   851.06   866.56
eigval :      882.17   905.80  1002.59  1022.00  1050.95  1117.87
eigval :     1130.47  1153.94  1184.87  1205.16  1277.26  1310.94
eigval :     1343.45  1390.50  1427.39  1462.28  1465.01  1477.26
eigval :     1498.81  1576.11  1624.98  2929.09  2944.86  3028.81
eigval :     3072.11  3079.07  3097.03  3102.12  3465.76  3520.99
           -------------------------------------------------
          |                Property Printout                |
           -------------------------------------------------

    * Orbital Energies and Occupations

         #    Occupation            Energy/Eh            Energy/eV
      -------------------------------------------------------------
         1        2.0000           -0.7083692             -19.2757
       ...           ...                  ...                  ...
        12        2.0000           -0.5235938             -14.2477
        13        2.0000           -0.5075608             -13.8114
        14        2.0000           -0.4879181             -13.2769
        15        2.0000           -0.4829570             -13.1419
        16        2.0000           -0.4728306             -12.8664
        17        2.0000           -0.4650695             -12.6552
        18        2.0000           -0.4593839             -12.5005
        19        2.0000           -0.4550051             -12.3813
        20        2.0000           -0.4435887             -12.0707
        21        2.0000           -0.4134935             -11.2517
        22        2.0000           -0.4080976             -11.1049
        23        2.0000           -0.3969955             -10.8028
        24        2.0000           -0.3443859              -9.3712 (HOMO)
        25                         -0.2152159              -5.8563 (LUMO)
        26                         -0.1936440              -5.2693
        27                         -0.0772529              -2.1022
        28                          0.0277057               0.7539
        29                          0.0579087               1.5758
        30                          0.1194953               3.2516
        31                          0.1249959               3.4013
        32                          0.1568830               4.2690
        33                          0.1655392               4.5046
        34                          0.1704786               4.6390
        35                          0.2049054               5.5758
       ...                                ...                  ...
        45                          0.6756690              18.3859
      -------------------------------------------------------------
                  HL-Gap            0.1291701 Eh            3.5149 eV
             Fermi-level           -0.2798009 Eh           -7.6138 eV

     #   Z          covCN         q      C6AA      α(0)
     1   6 C        2.862     0.119    25.377     8.257
     2   6 C        2.919    -0.063    29.561     8.916
     3   6 C        2.924    -0.068    29.692     8.936
     4   6 C        2.896     0.070    26.439     8.431
     5   6 C        2.926    -0.071    29.782     8.950
     6   6 C        2.916    -0.072    29.797     8.951
     7   1 H        0.926     0.035     2.511     2.478
     8   1 H        0.926     0.035     2.517     2.481
     9   7 N        2.640    -0.321    28.272     7.897
    10   1 H        0.860     0.196     1.129     1.664
    11   1 H        0.860     0.196     1.129     1.664
    12   1 H        0.926     0.038     2.471     2.458
    13   1 H        0.926     0.037     2.483     2.464
    14   8 O        1.704    -0.325    19.433     5.952
    15   6 C        3.641     0.030    20.426     6.499
    16   1 H        0.925     0.072     2.062     2.246
    17   1 H        0.924     0.046     2.369     2.407
    18   1 H        0.924     0.046     2.367     2.406

 Mol. C6AA /au·bohr⁶  :       3490.684580
 Mol. C8AA /au·bohr⁸  :      81604.464968
 Mol. α(0) /au        :         93.056063


Wiberg/Mayer (AO) data.
largest (>0.10) Wiberg bond orders for each atom

 ---------------------------------------------------------------------------
     #   Z sym  total        # sym  WBO       # sym  WBO       # sym  WBO
 ---------------------------------------------------------------------------
     1   6 C    3.926 --     6 C    1.381     2 C    1.351    14 O    1.023
     2   6 C    3.989 --     3 C    1.480     1 C    1.351    12 H    0.969
                             5 C    0.105
     3   6 C    3.987 --     2 C    1.480     4 C    1.332    13 H    0.968
                             6 C    0.100
     4   6 C    3.977 --     5 C    1.356     3 C    1.332     9 N    1.163
     5   6 C    3.986 --     6 C    1.444     4 C    1.356     8 H    0.969
                             2 C    0.105
     6   6 C    3.988 --     5 C    1.444     1 C    1.381     7 H    0.966
                             3 C    0.100
     7   1 H    0.998 --     6 C    0.966
     8   1 H    0.999 --     5 C    0.969
     9   7 N    3.226 --     4 C    1.163    11 H    0.943    10 H    0.943
    10   1 H    0.961 --     9 N    0.943
    11   1 H    0.961 --     9 N    0.943
    12   1 H    0.998 --     2 C    0.969
    13   1 H    0.998 --     3 C    0.968
    14   8 O    2.165 --     1 C    1.023    15 C    0.979
    15   6 C    3.939 --    14 O    0.979    16 H    0.978    18 H    0.977
                            17 H    0.977
    16   1 H    0.994 --    15 C    0.978
    17   1 H    0.998 --    15 C    0.977
    18   1 H    0.998 --    15 C    0.977
 ---------------------------------------------------------------------------

Topologies differ in total number of bonds
Writing topology from bond orders to xtbtopo.mol

molecular dipole:
                 x           y           z       tot (Debye)
 q only:       -0.784      -0.586       0.220
   full:       -0.735      -0.698       0.419       2.788
molecular quadrupole (traceless):
                xx          xy          yy          xz          yz          zz
 q only:        9.799      -3.263      -3.564      -2.241      -0.213      -6.235
  q+dip:        9.628      -3.535      -0.971      -4.377      -0.423      -8.656
   full:        9.404      -3.863      -2.305      -4.387      -0.425      -7.100

           -------------------------------------------------
          |                Geometry Summary                 |
           -------------------------------------------------

      molecular mass/u    :      123.1527262
   center of mass at/Å    :       -0.0094872       0.0181942       0.0046189
  moments of inertia/u·Å² :        0.1027946E+03   0.5082776E+03   0.6075060E+03
rotational constants/cm⁻¹ :        0.1639933E+00   0.3316619E-01   0.2774891E-01

 * 18 selected distances

     #   Z          #   Z                                           value/Å
     1   6 C        2   6 C                                       1.3938379
     2   6 C        3   6 C                                       1.3770699
     3   6 C        4   6 C                                       1.3981206
     4   6 C        5   6 C                                       1.3935641
     1   6 C        6   6 C                                       1.3878157
     5   6 C        6   6 C                                       1.3839140
     6   6 C        7   1 H                                       1.0784348
     5   6 C        8   1 H                                       1.0801043
     4   6 C        9   7 N                                       1.3803547
     9   7 N       10   1 H                                       1.0067470
     9   7 N       11   1 H                                       1.0067263 (min)
     2   6 C       12   1 H                                       1.0789315
     3   6 C       13   1 H                                       1.0798134
     1   6 C       14   8 O                                       1.3779224
    14   8 O       15   6 C                                       1.4115127 (max)
    15   6 C       16   1 H                                       1.0879595
    15   6 C       17   1 H                                       1.0940248
    15   6 C       18   1 H                                       1.0939695

 * 5 distinct bonds (by element types)

   Z      Z             #   av. dist./Å        max./Å        min./Å
   1 H    6 C           7     1.0847482     1.0940248     1.0784348
   6 C    6 C           6     1.3890537     1.3981206     1.3770699
   1 H    7 N           2     1.0067367     1.0067470     1.0067263
   6 C    7 N           1     1.3803547     1.3803547     1.3803547
   6 C    8 O           2     1.3947175     1.4115127     1.3779224

           -------------------------------------------------
          |               Frequency Printout                |
           -------------------------------------------------
 projected vibrational frequencies (cm⁻¹)
eigval :       -0.00    -0.00    -0.00     0.00     0.00     0.00
eigval :       72.94   144.50   219.73   233.99   349.52   359.08
eigval :      364.78   390.99   404.92   489.53   500.35   554.77
eigval :      613.04   661.43   736.95   792.07   851.06   866.56
eigval :      882.17   905.80  1002.59  1022.00  1050.95  1117.87
eigval :     1130.47  1153.94  1184.87  1205.16  1277.26  1310.94
eigval :     1343.45  1390.50  1427.39  1462.28  1465.01  1477.26
eigval :     1498.81  1576.11  1624.98  2929.09  2944.86  3028.81
eigval :     3072.11  3079.07  3097.03  3102.12  3465.76  3520.99
 reduced masses (amu)
   1: 10.24   2: 11.32   3: 11.62   4: 11.95   5: 11.69   6: 11.63   7:  9.66   8: 11.83
   9:  9.52  10:  2.24  11:  6.09  12: 10.54  13:  7.28  14:  8.65  15: 10.62  16:  8.06
  17: 11.27  18:  5.09  19: 11.25  20: 11.44  21: 11.40  22:  5.22  23:  3.33  24: 11.18
  25:  2.70  26:  3.58  27:  9.10  28:  4.05  29: 11.65  30:  3.70  31:  3.75  32:  3.95
  33:  4.93  34:  5.89  35:  3.57  36: 10.13  37: 11.45  38:  2.57  39:  9.98  40:  1.55
  41:  3.90  42:  1.80  43:  8.90  44: 11.61  45: 11.57  46:  1.95  47:  1.44  48:  1.69
  49:  1.80  50:  1.79  51:  1.86  52:  1.85  53:  1.46  54:  2.16
 IR intensities (km·mol⁻¹)
   1:  0.33   2:  1.42   3:  0.38   4:  0.23   5:  0.23   6:  0.17   7:  7.01   8:  1.90
   9:  4.42  10:  0.26  11: 12.05  12: 10.68  13:  6.13  14:  2.09  15:  1.56  16: 48.83
  17:  6.77  18:616.92  19:  1.16  20:  9.81  21: 53.75  22: 65.25  23:  0.79  24:  9.49
  25:  0.10  26:  0.20  27:  9.33  28:  6.60  29: 88.57  30:  3.37  31: 10.60  32:  9.47
  33:204.94  34:435.19  35:  6.14  36: 19.79  37: 37.87  38:  0.06  39: 32.96  40:  5.42
  41:  8.82  42: 43.50  43:578.60  44: 18.70  45: 32.35  46: 58.43  47: 54.78  48: 25.46
  49: 81.41  50: 79.56  51:158.95  52: 23.79  53: 14.77  54: 13.35
 Raman intensities (amu)
   1:  0.00   2:  0.00   3:  0.00   4:  0.00   5:  0.00   6:  0.00   7:  0.00   8:  0.00
   9:  0.00  10:  0.00  11:  0.00  12:  0.00  13:  0.00  14:  0.00  15:  0.00  16:  0.00
  17:  0.00  18:  0.00  19:  0.00  20:  0.00  21:  0.00  22:  0.00  23:  0.00  24:  0.00
  25:  0.00  26:  0.00  27:  0.00  28:  0.00  29:  0.00  30:  0.00  31:  0.00  32:  0.00
  33:  0.00  34:  0.00  35:  0.00  36:  0.00  37:  0.00  38:  0.00  39:  0.00  40:  0.00
  41:  0.00  42:  0.00  43:  0.00  44:  0.00  45:  0.00  46:  0.00  47:  0.00  48:  0.00
  49:  0.00  50:  0.00  51:  0.00  52:  0.00  53:  0.00  54:  0.00
 output can be read by thermo (or use thermo option).
 writing <g98.out> molden fake output.
 recommended (thermochemical) frequency scaling factor: 1.0
           -------------------------------------------------
          |             Thermodynamic Functions             |
           -------------------------------------------------

Molecule has no symmetry elements
It seems to be the C1 point group
c1  symmetry found (for desy threshold:  0.10E+00) used in thermo

          ...................................................
          :                      SETUP                      :
          :.................................................:
          :  # frequencies                          48      :
          :  # imaginary freq.                       0      :
          :  linear?                             false      :
          :  only rotor calc.                    false      :
          :  symmetry                               c1      :
          :  rotational number                       1      :
          :  scaling factor                  1.0000000      :
          :  rotor cutoff                   50.0000000 cm⁻¹ :
          :  imag. cutoff                  -20.0000000 cm⁻¹ :
          :.................................................:

    mode    ω/cm⁻¹     T·S(HO)/kcal·mol⁻¹    T·S(FR)/kcal·mol⁻¹   T·S(vib)
   ------------------------------------------------------------------------
       1     72.94    -1.21415 ( 81.92%)    -0.94450 ( 18.08%)    -1.16539
       2    144.50    -0.81794 ( 98.59%)    -0.74207 (  1.41%)    -0.81686
       3    219.73    -0.58476 ( 99.73%)    -0.61794 (  0.27%)    -0.58485
       4    233.99    -0.55102 ( 99.79%)    -0.59932 (  0.21%)    -0.55112
   ------------------------------------------------------------------------

   temp. (K)  partition function   enthalpy   heat capacity  entropy
                                   cal/mol     cal/K/mol   cal/K/mol   J/K/mol
 298.15  VIB   63.2                 3625.590     27.517     20.234
         ROT  0.430E+06              888.752      2.981     28.760
         INT  0.272E+08             4514.343     30.498     48.995
         TR   0.132E+28             1481.254      4.968     40.320
         TOT                        5995.5966    35.4664    89.3153   373.6950

       T/K    H(0)-H(T)+PV         H(T)/Eh          T*S/Eh         G(T)/Eh
   ------------------------------------------------------------------------
    298.15    0.955459E-02    0.153890E+00    0.424366E-01    0.111453E+00
   ------------------------------------------------------------------------

         :::::::::::::::::::::::::::::::::::::::::::::::::::::
         ::                  THERMODYNAMIC                  ::
         :::::::::::::::::::::::::::::::::::::::::::::::::::::
         :: total free energy         -26.443898707422 Eh   ::
         ::.................................................::
         :: total energy              -26.555352003879 Eh   ::
         :: zero point energy           0.144335265630 Eh   ::
         :: G(RRHO) w/o ZPVE           -0.032881969173 Eh   ::
         :: G(RRHO) contrib.            0.111453296458 Eh   ::
         :::::::::::::::::::::::::::::::::::::::::::::::::::::

optimized geometry written to: xtbopt.xyz


           -------------------------------------------------
          | TOTAL ENERGY              -26.555352003879 Eh   |
          | TOTAL ENTHALPY            -26.401462146836 Eh   |
          | TOTAL FREE ENERGY         -26.443898707422 Eh   |
          | GRADIENT NORM               0.000193708874 Eh/α |
          | HOMO-LUMO GAP               3.514896047165 eV   |
           -------------------------------------------------

------------------------------------------------------------------------
 * finished run on 2021/11/15 at 09:36:18.813     
------------------------------------------------------------------------
 total:
 * wall-time:     0 d,  0 h,  0 min,  1.017 sec
 *  cpu-time:     0 d,  0 h,  0 min,  0.922 sec
 * ratio c/w:     0.907 speedup
 SCF:
 * wall-time:     0 d,  0 h,  0 min,  0.011 sec
 *  cpu-time:     0 d,  0 h,  0 min,  0.016 sec
 * ratio c/w:     1.399 speedup
 ANC optimizer:
 * wall-time:     0 d,  0 h,  0 min,  0.069 sec
 *  cpu-time:     0 d,  0 h,  0 min,  0.062 sec
 * ratio c/w:     0.910 speedup
 analytical hessian:
 * wall-time:     0 d,  0 h,  0 min,  0.842 sec
 *  cpu-time:     0 d,  0 h,  0 min,  0.828 sec
 * ratio c/w:     0.983 speedup

