 Entering Gaussian System
 *********************************************
 Gaussian 98:
 frequency output generated by the xtb code
 *********************************************
                         Standard orientation:
 --------------------------------------------------------------------
  Center     Atomic     Atomic              Coordinates (Angstroms)
  Number     Number      Type              X           Y           Z
 --------------------------------------------------------------------
    1          6             0        0.935124    0.270342    0.000576
    2          6             0        0.068332    1.361873    0.004616
    3          6             0       -1.296117    1.176161    0.015113
    4          6             0       -1.843836   -0.110197    0.020489
    5          6             0       -0.967897   -1.194048    0.015942
    6          6             0        0.403918   -1.011778    0.005030
    7          1             0        1.043815   -1.879850    0.002566
    8          1             0       -1.365956   -2.198123    0.018504
    9          7             0       -3.209781   -0.298371   -0.044042
   10          1             0       -3.542059   -1.198629    0.260370
   11          1             0       -3.771866    0.479913    0.258995
   12          1             0        0.494032    2.353269    0.002173
   13          1             0       -1.952428    2.033627    0.017226
   14          8             0        2.279611    0.572003   -0.004503
   15          6             0        3.202711   -0.495823   -0.003292
   16          1             0        4.184465   -0.026981   -0.004275
   17          1             0        3.092954   -1.114687    0.892170
   18          1             0        3.092379   -1.117487   -0.896673
 --------------------------------------------------------------------
     1 basis functions        1 primitive gaussians
     1 alpha electrons        1 beta electrons
 
 Harmonic frequencies (cm**-1), IR intensities (km*mol⁻¹),
 Raman scattering activities (A**4/amu), Raman depolarization ratios,
 reduced masses (AMU), force constants (mDyne/A) and normal coordinates:
                      1                      2                      3
                        a                      a                      a 
 Frequencies --    72.9447               144.5029               219.7314
 Red. masses --     9.6600                11.8290                 9.5151
 Frc consts  --     0.0000                 0.0000                 0.0000
 IR Inten    --     7.0077                 1.9016                 4.4151
 Raman Activ --     0.0000                 0.0000                 0.0000
 Depolar     --     0.0000                 0.0000                 0.0000
 Atom AN      X      Y      Z        X      Y      Z        X      Y      Z
   1   6    -0.00  -0.00  -0.23    -0.00  -0.00   0.01     0.02   0.29  -0.00
   2   6     0.00  -0.00  -0.06     0.00   0.00   0.28    -0.05   0.22   0.00
   3   6     0.00  -0.00   0.07     0.00  -0.00   0.32    -0.06   0.07  -0.00
   4   6     0.00  -0.00   0.04    -0.00  -0.00   0.06     0.07   0.01   0.00
   5   6     0.00  -0.00  -0.23    -0.00  -0.00   0.19     0.17   0.10  -0.00
   6   6    -0.00  -0.00  -0.36    -0.00  -0.00   0.17     0.11   0.25  -0.00
   7   1    -0.00  -0.00  -0.16     0.00   0.00   0.05     0.04   0.08  -0.00
   8   1     0.00  -0.00  -0.09     0.00  -0.00   0.06     0.08   0.02  -0.00
   9   7    -0.01   0.01   0.33     0.02   0.01  -0.44     0.13  -0.33   0.00
  10   1     0.01  -0.01   0.08    -0.02  -0.01  -0.17     0.11  -0.12  -0.01
  11   1     0.01  -0.01   0.14    -0.02  -0.01  -0.15    -0.03  -0.14   0.01
  12   1    -0.00  -0.00  -0.00     0.00   0.00   0.10    -0.05   0.08   0.00
  13   1     0.00  -0.00   0.07     0.00   0.00   0.13    -0.04   0.00  -0.00
  14   8    -0.00  -0.00  -0.29    -0.00  -0.00  -0.61     0.10   0.01   0.00
  15   6     0.00   0.00   0.55    -0.00   0.00   0.08    -0.41  -0.43   0.00
  16   1     0.00   0.00   0.27    -0.00   0.00  -0.08    -0.05  -0.27  -0.01
  17   1    -0.14   0.08   0.20     0.01   0.16   0.14    -0.20  -0.10   0.01
  18   1     0.14  -0.08   0.20    -0.01  -0.16   0.14    -0.21  -0.11   0.00
                      4                      5                      6
                        a                      a                      a 
 Frequencies --   233.9880               349.5237               359.0765
 Red. masses --     2.2375                 6.0873                10.5380
 Frc consts  --     0.0000                 0.0000                 0.0000
 IR Inten    --     0.2601                12.0528                10.6782
 Raman Activ --     0.0000                 0.0000                 0.0000
 Depolar     --     0.0000                 0.0000                 0.0000
 Atom AN      X      Y      Z        X      Y      Z        X      Y      Z
   1   6    -0.00   0.00  -0.07    -0.03   0.03  -0.02    -0.02  -0.01  -0.36
   2   6    -0.00   0.00   0.00    -0.03  -0.00   0.07    -0.01  -0.01  -0.43
   3   6    -0.00   0.00   0.05     0.04  -0.19  -0.01     0.02  -0.02   0.37
   4   6     0.00   0.00   0.10     0.14  -0.22   0.02     0.05  -0.03   0.34
   5   6     0.00   0.00   0.22     0.13  -0.23   0.03     0.02  -0.05   0.17
   6   6    -0.00   0.00   0.04     0.12  -0.04  -0.10     0.02  -0.03  -0.17
   7   1    -0.00   0.00  -0.03     0.06   0.01  -0.06     0.01  -0.00  -0.04
   8   1     0.00   0.00   0.09     0.06  -0.08   0.02     0.01  -0.02   0.05
   9   7     0.02  -0.01  -0.14     0.09   0.29  -0.00     0.07   0.11  -0.22
  10   1    -0.01   0.00  -0.04    -0.18   0.27   0.36    -0.04  -0.03  -0.29
  11   1    -0.01   0.00  -0.09     0.15   0.32  -0.38    -0.00  -0.02   0.03
  12   1    -0.00   0.00  -0.01    -0.03   0.01   0.05     0.00  -0.00  -0.19
  13   1    -0.00   0.00   0.00    -0.03  -0.08  -0.01    -0.00  -0.01   0.17
  14   8    -0.00  -0.00  -0.12    -0.09   0.18   0.02    -0.05   0.04   0.32
  15   6    -0.01  -0.00  -0.04    -0.29   0.01   0.01    -0.08   0.02   0.04
  16   1    -0.00  -0.00   0.55    -0.05  -0.06  -0.02    -0.02  -0.01  -0.08
  17   1    -0.35  -0.31  -0.27    -0.11   0.02   0.01     0.05   0.02   0.03
  18   1     0.35   0.30  -0.27    -0.14   0.00   0.01    -0.10  -0.00   0.03
                      7                      8                      9
                        a                      a                      a 
 Frequencies --   364.7836               390.9937               404.9206
 Red. masses --     7.2839                 8.6465                10.6175
 Frc consts  --     0.0000                 0.0000                 0.0000
 IR Inten    --     6.1321                 2.0931                 1.5562
 Raman Activ --     0.0000                 0.0000                 0.0000
 Depolar     --     0.0000                 0.0000                 0.0000
 Atom AN      X      Y      Z        X      Y      Z        X      Y      Z
   1   6    -0.03  -0.02   0.15    -0.07  -0.10  -0.03    -0.17  -0.22   0.03
   2   6    -0.01  -0.02  -0.07     0.04  -0.02   0.31     0.12  -0.03  -0.09
   3   6     0.05  -0.11   0.01     0.06   0.07  -0.36     0.10   0.29   0.12
   4   6     0.12  -0.14  -0.14     0.12   0.05   0.03     0.23   0.24  -0.02
   5   6     0.08  -0.16  -0.23     0.02  -0.04   0.40    -0.02   0.05  -0.16
   6   6     0.09  -0.07   0.33     0.02  -0.13  -0.37    -0.02  -0.27   0.13
   7   1     0.04  -0.01   0.17     0.00  -0.04  -0.21    -0.02  -0.09   0.07
   8   1     0.03  -0.05  -0.12    -0.03   0.00   0.22    -0.11   0.06  -0.09
   9   7     0.06   0.34   0.09     0.15   0.07  -0.02     0.35  -0.22   0.02
  10   1    -0.02  -0.03  -0.38     0.08  -0.08  -0.25     0.19  -0.03   0.18
  11   1     0.12  -0.01   0.47     0.02  -0.08   0.22    -0.01  -0.06  -0.18
  12   1    -0.00  -0.01  -0.07     0.05  -0.02   0.18     0.14  -0.06  -0.05
  13   1    -0.02  -0.06   0.02     0.01   0.01  -0.20     0.05   0.09   0.07
  14   8    -0.11   0.14  -0.14    -0.16   0.06   0.03    -0.34   0.02  -0.02
  15   6    -0.23   0.03  -0.02    -0.16   0.07   0.01    -0.23   0.15  -0.00
  16   1    -0.04  -0.04   0.07    -0.04   0.01  -0.05    -0.08   0.06   0.02
  17   1    -0.14  -0.01  -0.03    -0.02   0.04   0.02    -0.06   0.03  -0.01
  18   1    -0.04   0.04  -0.03    -0.08  -0.00   0.02    -0.04   0.04  -0.01
                     10                     11                     12
                        a                      a                      a 
 Frequencies --   489.5328               500.3464               554.7674
 Red. masses --     8.0559                11.2737                 5.0905
 Frc consts  --     0.0000                 0.0000                 0.0000
 IR Inten    --    48.8294                 6.7701               616.9228
 Raman Activ --     0.0000                 0.0000                 0.0000
 Depolar     --     0.0000                 0.0000                 0.0000
 Atom AN      X      Y      Z        X      Y      Z        X      Y      Z
   1   6    -0.04   0.03   0.53    -0.30   0.18  -0.09    -0.01   0.02   0.18
   2   6    -0.03   0.05  -0.10    -0.14   0.38   0.02     0.04   0.05  -0.08
   3   6    -0.03   0.01  -0.11    -0.08   0.05   0.01     0.05  -0.01   0.07
   4   6     0.02  -0.01   0.50     0.22  -0.09  -0.09     0.07  -0.00   0.14
   5   6    -0.01  -0.04  -0.12     0.02  -0.21   0.02     0.04   0.00   0.06
   6   6    -0.02   0.02  -0.11    -0.08   0.13   0.02     0.04   0.00  -0.08
   7   1     0.01   0.02  -0.26     0.08   0.12   0.05     0.02   0.01  -0.11
   8   1    -0.00  -0.01  -0.26     0.01  -0.06   0.05     0.01   0.00  -0.06
   9   7     0.11   0.02  -0.00     0.27   0.07   0.03    -0.21  -0.03  -0.43
  10   1    -0.07  -0.02  -0.20     0.03   0.03  -0.01     0.16   0.11   0.54
  11   1    -0.06   0.01  -0.20     0.11   0.04   0.02     0.19  -0.05   0.53
  12   1    -0.02   0.02  -0.26    -0.06   0.11   0.05     0.01   0.01  -0.11
  13   1    -0.02  -0.01  -0.27    -0.11  -0.06   0.04     0.00  -0.01  -0.06
  14   8    -0.02  -0.06  -0.13    -0.24  -0.45   0.02    -0.09  -0.05  -0.03
  15   6     0.04  -0.01  -0.01     0.23  -0.08   0.00    -0.01   0.00  -0.00
  16   1     0.00   0.02  -0.00    -0.02   0.16  -0.00    -0.02   0.03  -0.00
  17   1     0.02   0.01   0.01     0.18  -0.04   0.00     0.01   0.01   0.00
  18   1     0.04  -0.02   0.01     0.18  -0.03  -0.00     0.01  -0.00   0.00
                     13                     14                     15
                        a                      a                      a 
 Frequencies --   613.0350               661.4264               736.9458
 Red. masses --    11.2531                11.4411                11.4049
 Frc consts  --     0.0000                 0.0000                 0.0000
 IR Inten    --     1.1639                 9.8103                53.7526
 Raman Activ --     0.0000                 0.0000                 0.0000
 Depolar     --     0.0000                 0.0000                 0.0000
 Atom AN      X      Y      Z        X      Y      Z        X      Y      Z
   1   6    -0.03  -0.08   0.00    -0.00  -0.00   0.51     0.01   0.01   0.02
   2   6    -0.39  -0.26   0.00    -0.01  -0.01  -0.31     0.24   0.09  -0.01
   3   6    -0.45   0.22   0.00    -0.01   0.01   0.30     0.27  -0.14  -0.00
   4   6     0.02   0.09  -0.00    -0.01  -0.00  -0.54    -0.16  -0.04  -0.02
   5   6     0.34   0.28   0.00    -0.01  -0.01   0.30     0.28   0.25  -0.00
   6   6     0.41  -0.19  -0.00    -0.02  -0.00  -0.32     0.29   0.08  -0.01
   7   1     0.09  -0.07  -0.00    -0.00  -0.00  -0.08     0.10   0.04   0.01
   8   1     0.06   0.09  -0.00    -0.00  -0.00   0.14     0.16   0.04   0.02
   9   7     0.02   0.13  -0.01     0.03   0.00   0.11    -0.34  -0.05   0.07
  10   1    -0.05   0.06   0.01     0.01  -0.02  -0.04    -0.15  -0.03  -0.10
  11   1     0.06   0.07   0.03    -0.00   0.02  -0.04    -0.12   0.00  -0.09
  12   1    -0.08  -0.08  -0.00    -0.00  -0.00  -0.10     0.08   0.02   0.01
  13   1    -0.11   0.07  -0.00    -0.00   0.00   0.13     0.12   0.00   0.02
  14   8    -0.02  -0.10  -0.00     0.02   0.01  -0.06    -0.40  -0.30   0.00
  15   6     0.08  -0.09  -0.00     0.01  -0.00  -0.01    -0.16   0.08  -0.00
  16   1     0.01   0.01  -0.00     0.00  -0.01   0.00    -0.12   0.18   0.00
  17   1     0.04  -0.03   0.00    -0.01   0.01   0.00     0.06   0.00   0.00
  18   1     0.04  -0.03  -0.00     0.00  -0.01   0.00     0.06   0.01  -0.00
                     16                     17                     18
                        a                      a                      a 
 Frequencies --   792.0668               851.0568               866.5630
 Red. masses --     5.2231                 3.3323                11.1810
 Frc consts  --     0.0000                 0.0000                 0.0000
 IR Inten    --    65.2488                 0.7925                 9.4889
 Raman Activ --     0.0000                 0.0000                 0.0000
 Depolar     --     0.0000                 0.0000                 0.0000
 Atom AN      X      Y      Z        X      Y      Z        X      Y      Z
   1   6    -0.00  -0.00  -0.27    -0.00   0.00   0.04     0.17   0.03  -0.00
   2   6     0.01   0.01   0.16    -0.00  -0.00  -0.21    -0.10  -0.45   0.01
   3   6     0.01   0.00   0.22    -0.00  -0.00  -0.29     0.02  -0.32   0.00
   4   6    -0.01  -0.00  -0.31     0.00   0.00   0.03     0.02   0.01  -0.00
   5   6     0.01   0.00   0.25     0.00  -0.00   0.19    -0.05   0.32  -0.01
   6   6     0.01  -0.00   0.24     0.00   0.00   0.21    -0.22   0.43   0.01
   7   1     0.00  -0.00  -0.43    -0.00   0.00  -0.44    -0.13   0.07  -0.01
   8   1    -0.00   0.00  -0.45    -0.01   0.00  -0.35     0.05   0.07   0.01
   9   7    -0.01  -0.00   0.08     0.00   0.00  -0.01     0.37   0.05  -0.02
  10   1     0.00  -0.01  -0.01     0.00   0.00  -0.00     0.13   0.01   0.03
  11   1     0.00   0.01  -0.01    -0.00  -0.00   0.00     0.12   0.02   0.03
  12   1     0.00   0.00  -0.30    -0.00   0.00   0.39    -0.15  -0.08  -0.01
  13   1    -0.00  -0.00  -0.38     0.01   0.01   0.57     0.06  -0.06  -0.00
  14   8    -0.01  -0.01   0.06    -0.00  -0.00  -0.00    -0.14  -0.15   0.00
  15   6    -0.00   0.00   0.01     0.00  -0.00  -0.00    -0.11   0.06   0.00
  16   1    -0.00   0.00  -0.02    -0.00   0.00  -0.01    -0.07   0.11  -0.00
  17   1     0.01   0.00   0.01    -0.00   0.01   0.00     0.03   0.00  -0.00
  18   1    -0.01  -0.00   0.01     0.00  -0.01   0.00     0.03   0.00   0.00
                     19                     20                     21
                        a                      a                      a 
 Frequencies --   882.1679               905.8030              1002.5874
 Red. masses --     2.7034                 3.5807                 9.1016
 Frc consts  --     0.0000                 0.0000                 0.0000
 IR Inten    --     0.1040                 0.2042                 9.3263
 Raman Activ --     0.0000                 0.0000                 0.0000
 Depolar     --     0.0000                 0.0000                 0.0000
 Atom AN      X      Y      Z        X      Y      Z        X      Y      Z
   1   6     0.01   0.00  -0.01     0.00  -0.00   0.02     0.19   0.02  -0.00
   2   6    -0.00  -0.01  -0.11    -0.00  -0.00  -0.33     0.04  -0.28  -0.00
   3   6     0.00  -0.01   0.04     0.00   0.00   0.26    -0.14   0.45   0.00
   4   6     0.00  -0.00   0.03    -0.00   0.00   0.02     0.07  -0.02   0.00
   5   6     0.00   0.01   0.28    -0.00   0.00  -0.16    -0.00  -0.41   0.00
   6   6    -0.00   0.01  -0.25     0.00   0.00   0.17    -0.06   0.31  -0.00
   7   1     0.00   0.00   0.56    -0.00  -0.00  -0.25     0.12   0.18  -0.00
   8   1    -0.01   0.01  -0.61     0.01  -0.00   0.22     0.17  -0.18  -0.00
   9   7     0.01  -0.00   0.01     0.00   0.00   0.00    -0.12  -0.07  -0.00
  10   1    -0.00   0.00   0.00    -0.00  -0.00  -0.01    -0.13   0.01  -0.02
  11   1     0.00   0.00  -0.00    -0.00  -0.00   0.00     0.03   0.02   0.02
  12   1    -0.00  -0.00   0.34     0.01  -0.00   0.64     0.20  -0.15   0.00
  13   1    -0.00  -0.00  -0.20    -0.01  -0.01  -0.50     0.11   0.23  -0.00
  14   8    -0.00  -0.01  -0.02    -0.00  -0.00  -0.01     0.07  -0.16   0.00
  15   6    -0.00   0.00  -0.00    -0.00   0.00  -0.00    -0.19   0.12  -0.00
  16   1    -0.00   0.00   0.02    -0.00   0.00  -0.00    -0.09   0.11  -0.00
  17   1     0.00  -0.01  -0.00    -0.01   0.01   0.00     0.03   0.01   0.00
  18   1     0.00   0.01  -0.00     0.01  -0.01   0.00     0.03   0.01  -0.00
                     22                     23                     24
                        a                      a                      a 
 Frequencies --  1022.0026              1050.9456              1117.8727
 Red. masses --     4.0456                11.6465                 3.7036
 Frc consts  --     0.0000                 0.0000                 0.0000
 IR Inten    --     6.5953                88.5690                 3.3654
 Raman Activ --     0.0000                 0.0000                 0.0000
 Depolar     --     0.0000                 0.0000                 0.0000
 Atom AN      X      Y      Z        X      Y      Z        X      Y      Z
   1   6    -0.02  -0.07   0.00    -0.18  -0.01   0.00     0.00  -0.00  -0.00
   2   6     0.06   0.11   0.00     0.01  -0.19   0.00     0.00   0.00  -0.00
   3   6     0.00   0.10  -0.01     0.09   0.03   0.00    -0.00   0.00   0.00
   4   6     0.01  -0.14  -0.00     0.02  -0.00  -0.00     0.00   0.00  -0.00
   5   6    -0.04   0.23   0.01     0.05  -0.03   0.00    -0.00  -0.00  -0.00
   6   6    -0.10   0.01   0.00    -0.04   0.18   0.00     0.00  -0.00   0.00
   7   1    -0.14  -0.08  -0.00     0.08   0.13   0.00    -0.00  -0.00  -0.02
   8   1    -0.07   0.09   0.01     0.14  -0.05  -0.00     0.00  -0.00   0.00
   9   7     0.08  -0.35  -0.00    -0.03  -0.01   0.00    -0.00   0.00  -0.00
  10   1    -0.56   0.09  -0.12    -0.01  -0.00  -0.01     0.00  -0.00   0.00
  11   1     0.53   0.23   0.13    -0.01  -0.00  -0.01    -0.00  -0.00  -0.00
  12   1     0.11  -0.01   0.00     0.18  -0.13  -0.00    -0.00   0.00   0.01
  13   1     0.02   0.04   0.00     0.14   0.09  -0.00    -0.00  -0.00  -0.00
  14   8    -0.00   0.01  -0.00    -0.45   0.42  -0.00    -0.00  -0.00  -0.22
  15   6     0.04   0.02   0.00     0.42  -0.39   0.00     0.00   0.00   0.42
  16   1     0.03  -0.04  -0.00     0.13  -0.17  -0.00     0.00  -0.00  -0.22
  17   1    -0.03   0.00  -0.00    -0.01  -0.04   0.01     0.36  -0.45  -0.17
  18   1    -0.03   0.00   0.00    -0.01  -0.04  -0.01    -0.36   0.45  -0.17
                     25                     26                     27
                        a                      a                      a 
 Frequencies --  1130.4656              1153.9353              1184.8734
 Red. masses --     3.7486                 3.9509                 4.9259
 Frc consts  --     0.0000                 0.0000                 0.0000
 IR Inten    --    10.5981                 9.4717               204.9363
 Raman Activ --     0.0000                 0.0000                 0.0000
 Depolar     --     0.0000                 0.0000                 0.0000
 Atom AN      X      Y      Z        X      Y      Z        X      Y      Z
   1   6     0.06   0.15  -0.00    -0.06   0.00  -0.00    -0.40   0.04   0.00
   2   6    -0.05  -0.10  -0.00    -0.08  -0.05  -0.00    -0.01  -0.10   0.00
   3   6     0.11  -0.03   0.00     0.09   0.01   0.00     0.02  -0.19  -0.00
   4   6     0.00   0.11  -0.00    -0.01   0.05   0.00    -0.08   0.03   0.00
   5   6    -0.10  -0.12  -0.00     0.01  -0.06  -0.00    -0.02   0.11  -0.00
   6   6     0.10  -0.13  -0.00     0.05   0.01   0.00     0.03   0.03   0.00
   7   1     0.22   0.10  -0.00     0.17   0.12  -0.00     0.46   0.35  -0.00
   8   1    -0.38   0.10   0.01    -0.06   0.01   0.00    -0.30   0.15   0.01
   9   7    -0.00  -0.08   0.00    -0.00  -0.02  -0.00     0.04  -0.00  -0.01
  10   1    -0.11   0.01  -0.03    -0.02  -0.00  -0.01     0.01   0.00   0.01
  11   1     0.09   0.04   0.02     0.03   0.01   0.01     0.03   0.01   0.01
  12   1    -0.40   0.14   0.00    -0.37   0.13   0.00     0.41  -0.21  -0.00
  13   1     0.33   0.22  -0.01     0.32   0.23  -0.01    -0.02  -0.07   0.00
  14   8    -0.01   0.20  -0.00    -0.08  -0.27   0.00     0.28  -0.05  -0.00
  15   6    -0.11  -0.25   0.00     0.17   0.32  -0.00    -0.09   0.10   0.00
  16   1    -0.18   0.27  -0.00     0.27  -0.42   0.00     0.03  -0.07  -0.00
  17   1     0.20  -0.05   0.03    -0.27   0.07  -0.03     0.02   0.01   0.01
  18   1     0.20  -0.05  -0.03    -0.27   0.07   0.03     0.02   0.01  -0.01
                     28                     29                     30
                        a                      a                      a 
 Frequencies --  1205.1560              1277.2609              1310.9436
 Red. masses --     5.8924                 3.5702                10.1262
 Frc consts  --     0.0000                 0.0000                 0.0000
 IR Inten    --   435.1932                 6.1380                19.7855
 Raman Activ --     0.0000                 0.0000                 0.0000
 Depolar     --     0.0000                 0.0000                 0.0000
 Atom AN      X      Y      Z        X      Y      Z        X      Y      Z
   1   6     0.43   0.02  -0.00    -0.03  -0.28   0.00    -0.32   0.16   0.00
   2   6     0.08  -0.05  -0.00     0.13  -0.07  -0.00     0.02  -0.24   0.00
   3   6    -0.06   0.07  -0.00     0.11   0.11  -0.00     0.11  -0.05  -0.00
   4   6     0.21   0.02  -0.01    -0.01   0.21  -0.00     0.49   0.22  -0.01
   5   6    -0.10  -0.08  -0.00    -0.10   0.09   0.00     0.37  -0.04   0.00
   6   6     0.12   0.13  -0.00    -0.13  -0.07   0.00    -0.28   0.02   0.00
   7   1     0.10   0.08  -0.00     0.38   0.29  -0.00    -0.22  -0.09   0.00
   8   1    -0.52   0.17   0.01     0.38  -0.13  -0.01    -0.06   0.06   0.00
   9   7    -0.12  -0.02   0.02    -0.00  -0.08  -0.00    -0.28  -0.05   0.01
  10   1    -0.10   0.01  -0.02    -0.11   0.02  -0.01    -0.24   0.04  -0.01
  11   1    -0.09  -0.04  -0.02     0.07   0.03   0.02    -0.17  -0.08   0.01
  12   1     0.01  -0.00  -0.00    -0.37   0.15   0.00    -0.13  -0.02   0.00
  13   1    -0.39  -0.27   0.01    -0.35  -0.26   0.01    -0.05  -0.09   0.00
  14   8    -0.30  -0.05   0.00     0.04   0.08  -0.00     0.14  -0.00  -0.00
  15   6     0.11  -0.00  -0.00    -0.05  -0.03   0.00    -0.02   0.04   0.00
  16   1     0.06  -0.08   0.00    -0.00  -0.02   0.00     0.02  -0.03  -0.00
  17   1    -0.10   0.02  -0.00     0.05   0.01   0.02     0.03  -0.02  -0.01
  18   1    -0.09   0.02   0.01     0.05   0.01  -0.02     0.03  -0.02   0.01
                     31                     32                     33
                        a                      a                      a 
 Frequencies --  1343.4464              1390.4965              1427.3939
 Red. masses --    11.4457                 2.5720                 9.9834
 Frc consts  --     0.0000                 0.0000                 0.0000
 IR Inten    --    37.8740                 0.0574                32.9593
 Raman Activ --     0.0000                 0.0000                 0.0000
 Depolar     --     0.0000                 0.0000                 0.0000
 Atom AN      X      Y      Z        X      Y      Z        X      Y      Z
   1   6     0.13   0.42  -0.00     0.07   0.01  -0.00     0.07  -0.32  -0.00
   2   6     0.37  -0.08  -0.00     0.06   0.01  -0.00     0.30   0.15  -0.00
   3   6    -0.35  -0.21  -0.00    -0.05   0.01   0.00    -0.37   0.02   0.00
   4   6    -0.26   0.39   0.01    -0.05  -0.03   0.00     0.06  -0.35   0.00
   5   6     0.20  -0.17   0.00     0.02  -0.02  -0.00     0.37   0.13  -0.00
   6   6    -0.18  -0.28   0.00     0.01   0.01  -0.00    -0.39   0.02   0.00
   7   1     0.05  -0.01  -0.00    -0.05  -0.03   0.00     0.10   0.17  -0.00
   8   1     0.07  -0.06   0.00    -0.03   0.01   0.00    -0.15   0.14   0.00
   9   7     0.11  -0.04  -0.00     0.02   0.01  -0.00    -0.03   0.10   0.00
  10   1     0.00  -0.00  -0.03     0.03  -0.01  -0.00     0.11  -0.01   0.02
  11   1     0.16   0.08   0.02     0.01   0.01  -0.00    -0.09  -0.03  -0.02
  12   1     0.08  -0.01  -0.00    -0.01   0.01   0.00    -0.09   0.12   0.00
  13   1    -0.04  -0.01  -0.00    -0.00   0.01  -0.00     0.11   0.17  -0.00
  14   8    -0.13  -0.05   0.00    -0.12   0.08   0.00     0.00   0.07  -0.00
  15   6     0.06   0.01  -0.00    -0.24   0.20   0.00    -0.02  -0.06   0.00
  16   1     0.02  -0.01   0.00     0.23  -0.50   0.00    -0.01   0.01   0.00
  17   1    -0.06   0.02   0.00     0.44  -0.26  -0.13     0.02   0.08   0.06
  18   1    -0.06   0.02  -0.00     0.44  -0.26   0.13     0.02   0.08  -0.06
                     34                     35                     36
                        a                      a                      a 
 Frequencies --  1462.2787              1465.0082              1477.2588
 Red. masses --     1.5467                 3.9032                 1.7998
 Frc consts  --     0.0000                 0.0000                 0.0000
 IR Inten    --     5.4200                 8.8242                43.4958
 Raman Activ --     0.0000                 0.0000                 0.0000
 Depolar     --     0.0000                 0.0000                 0.0000
 Atom AN      X      Y      Z        X      Y      Z        X      Y      Z
   1   6    -0.00  -0.00   0.00     0.19   0.02  -0.00    -0.02  -0.06   0.00
   2   6     0.00  -0.00   0.00    -0.11   0.13   0.00     0.07   0.01  -0.00
   3   6     0.00   0.00  -0.00    -0.11  -0.17   0.00    -0.05   0.01   0.00
   4   6    -0.00  -0.00   0.00     0.12   0.05  -0.05    -0.05  -0.04  -0.01
   5   6     0.00  -0.00  -0.00    -0.16   0.10   0.00     0.04   0.02   0.00
   6   6    -0.00   0.00  -0.00    -0.04  -0.14   0.00    -0.04   0.00   0.00
   7   1    -0.00  -0.00   0.02     0.12   0.05  -0.00     0.06   0.05  -0.00
   8   1    -0.00   0.00  -0.00     0.16  -0.05  -0.01    -0.01   0.01  -0.00
   9   7    -0.00  -0.00   0.00     0.25   0.03  -0.04     0.07   0.02  -0.01
  10   1     0.01  -0.00  -0.00    -0.49   0.24   0.13    -0.08   0.05   0.04
  11   1     0.01   0.00  -0.00    -0.41  -0.37   0.14    -0.09  -0.08   0.03
  12   1    -0.00   0.00  -0.00     0.13  -0.03  -0.00    -0.03   0.02  -0.00
  13   1    -0.00  -0.00  -0.00     0.15   0.09  -0.01     0.00   0.02  -0.00
  14   8     0.00   0.00   0.03    -0.05  -0.01   0.00     0.02   0.06  -0.00
  15   6     0.00   0.00   0.22    -0.03  -0.01   0.00     0.14   0.15  -0.00
  16   1    -0.00   0.00  -0.72     0.02  -0.05  -0.01    -0.11   0.27   0.00
  17   1    -0.46  -0.06  -0.09     0.03   0.06   0.04    -0.21  -0.48  -0.36
  18   1     0.45   0.06  -0.09     0.05   0.06  -0.05    -0.21  -0.48   0.36
                     37                     38                     39
                        a                      a                      a 
 Frequencies --  1498.8117              1576.1141              1624.9825
 Red. masses --     8.9035                11.6067                11.5664
 Frc consts  --     0.0000                 0.0000                 0.0000
 IR Inten    --   578.6020                18.7021                32.3535
 Raman Activ --     0.0000                 0.0000                 0.0000
 Depolar     --     0.0000                 0.0000                 0.0000
 Atom AN      X      Y      Z        X      Y      Z        X      Y      Z
   1   6    -0.31  -0.01   0.00     0.02  -0.52   0.00    -0.25  -0.05   0.00
   2   6     0.30  -0.18  -0.00    -0.15   0.25   0.00     0.44  -0.06  -0.00
   3   6     0.05   0.21  -0.00    -0.09  -0.28   0.00    -0.43  -0.18   0.00
   4   6    -0.45  -0.12  -0.02    -0.10   0.51   0.00     0.34   0.02   0.00
   5   6     0.11  -0.14  -0.00     0.20  -0.28  -0.00    -0.43   0.08   0.00
   6   6     0.20   0.21  -0.00     0.11   0.33  -0.00     0.36   0.17  -0.00
   7   1    -0.17  -0.11   0.00    -0.11  -0.01   0.00    -0.06  -0.06   0.00
   8   1    -0.17   0.03   0.00    -0.09  -0.01   0.00     0.09  -0.05  -0.00
   9   7     0.31   0.05  -0.04     0.01  -0.06  -0.00    -0.10  -0.01   0.01
  10   1    -0.20   0.14   0.11    -0.07   0.01  -0.01     0.02  -0.03  -0.03
  11   1    -0.17  -0.19   0.10     0.06   0.03   0.02     0.01   0.03  -0.03
  12   1    -0.18   0.06   0.00     0.05   0.02  -0.00    -0.07   0.07   0.00
  13   1    -0.16  -0.07   0.00     0.07   0.00  -0.00     0.07   0.08  -0.00
  14   8     0.04   0.00  -0.00     0.03   0.05  -0.00     0.04   0.01  -0.00
  15   6     0.00  -0.03   0.00    -0.02  -0.02   0.00     0.00  -0.00   0.00
  16   1     0.01  -0.02  -0.00    -0.02   0.02  -0.00    -0.00   0.01   0.00
  17   1     0.01   0.07   0.05     0.01  -0.00   0.00    -0.01   0.00   0.00
  18   1     0.01   0.07  -0.05     0.01  -0.00  -0.00    -0.01   0.00  -0.00
                     40                     41                     42
                        a                      a                      a 
 Frequencies --  2929.0921              2944.8605              3028.8135
 Red. masses --     1.9497                 1.4419                 1.6914
 Frc consts  --     0.0000                 0.0000                 0.0000
 IR Inten    --    58.4315                54.7830                25.4624
 Raman Activ --     0.0000                 0.0000                 0.0000
 Depolar     --     0.0000                 0.0000                 0.0000
 Atom AN      X      Y      Z        X      Y      Z        X      Y      Z
   1   6     0.00   0.00   0.00    -0.00  -0.00   0.00    -0.00   0.00   0.00
   2   6    -0.00  -0.00  -0.00     0.00   0.00  -0.00    -0.00  -0.00   0.00
   3   6    -0.00   0.00   0.00     0.00  -0.00  -0.00     0.00  -0.00  -0.00
   4   6     0.00   0.00  -0.00    -0.00   0.00  -0.00    -0.00  -0.00  -0.00
   5   6    -0.00  -0.00  -0.00     0.00   0.00  -0.00     0.00   0.00  -0.00
   6   6     0.00  -0.00   0.00    -0.00   0.00   0.00     0.00  -0.00  -0.00
   7   1    -0.00   0.00   0.00     0.01  -0.01  -0.00    -0.00   0.00   0.00
   8   1     0.00   0.00   0.00    -0.00  -0.00  -0.00    -0.00  -0.00   0.00
   9   7    -0.00   0.00   0.00     0.00   0.00   0.00     0.00  -0.00   0.00
  10   1    -0.00   0.00  -0.00     0.00   0.00  -0.00    -0.00   0.00  -0.00
  11   1     0.00  -0.00   0.00     0.00  -0.00  -0.00    -0.00  -0.00  -0.00
  12   1     0.00   0.00  -0.00    -0.00  -0.00   0.00     0.00   0.00  -0.00
  13   1     0.00  -0.00  -0.00    -0.00   0.00  -0.00    -0.00   0.00   0.00
  14   8    -0.00   0.00  -0.01     0.01  -0.02  -0.00     0.01  -0.00  -0.00
  15   6     0.00   0.00  -0.29    -0.06  -0.19  -0.01     0.22   0.11  -0.00
  16   1    -0.00   0.00  -0.05     0.02  -0.01  -0.00    -0.87  -0.42   0.00
  17   1    -0.09  -0.41   0.55     0.06   0.36  -0.57     0.03   0.03  -0.01
  18   1     0.08   0.39   0.53     0.07   0.37   0.60     0.03   0.03   0.01
                     43                     44                     45
                        a                      a                      a 
 Frequencies --  3072.1122              3079.0676              3097.0338
 Red. masses --     1.8032                 1.7853                 1.8564
 Frc consts  --     0.0000                 0.0000                 0.0000
 IR Inten    --    81.4115                79.5641               158.9472
 Raman Activ --     0.0000                 0.0000                 0.0000
 Depolar     --     0.0000                 0.0000                 0.0000
 Atom AN      X      Y      Z        X      Y      Z        X      Y      Z
   1   6    -0.00   0.01  -0.00    -0.00  -0.00   0.00     0.00   0.00  -0.00
   2   6     0.01   0.01  -0.00    -0.03  -0.08   0.00     0.09   0.21  -0.00
   3   6     0.05  -0.06  -0.00    -0.14   0.19   0.00    -0.05   0.07   0.00
   4   6    -0.01  -0.00   0.00    -0.01   0.00   0.00    -0.00  -0.00  -0.00
   5   6    -0.09  -0.23   0.00    -0.02  -0.07   0.00     0.01   0.02  -0.00
   6   6    -0.03   0.04   0.00    -0.01   0.02   0.00    -0.08   0.10   0.00
   7   1     0.13  -0.17  -0.00     0.05  -0.07  -0.00     0.27  -0.37  -0.00
   8   1     0.33   0.83  -0.00     0.10   0.25  -0.00    -0.03  -0.07   0.00
   9   7     0.00   0.00  -0.00     0.00  -0.00   0.00     0.00   0.00   0.00
  10   1     0.00  -0.01   0.00     0.00   0.00  -0.00     0.00   0.00  -0.00
  11   1     0.00  -0.00   0.00     0.00  -0.00  -0.00     0.00  -0.00  -0.00
  12   1    -0.02  -0.05   0.00     0.13   0.31  -0.00    -0.31  -0.73   0.00
  13   1    -0.17   0.22   0.00     0.52  -0.68  -0.00     0.17  -0.22  -0.00
  14   8    -0.00  -0.00   0.00    -0.00   0.00   0.00    -0.00   0.00  -0.00
  15   6     0.00   0.00  -0.00     0.00  -0.00   0.00     0.00   0.00   0.00
  16   1    -0.00  -0.00  -0.00    -0.00  -0.00   0.00    -0.01  -0.00   0.00
  17   1    -0.00  -0.00   0.00     0.00   0.00  -0.00    -0.00  -0.00   0.00
  18   1    -0.00  -0.00  -0.00     0.00   0.00   0.00    -0.00  -0.00  -0.00
                     46                     47                     48
                        a                      a                      a 
 Frequencies --  3102.1211              3465.7616              3520.9853
 Red. masses --     1.8548                 1.4574                 2.1589
 Frc consts  --     0.0000                 0.0000                 0.0000
 IR Inten    --    23.7854                14.7674                13.3451
 Raman Activ --     0.0000                 0.0000                 0.0000
 Depolar     --     0.0000                 0.0000                 0.0000
 Atom AN      X      Y      Z        X      Y      Z        X      Y      Z
   1   6     0.01   0.00  -0.00     0.00   0.00   0.00    -0.00   0.00  -0.00
   2   6     0.05   0.11  -0.00     0.00   0.00   0.00     0.00  -0.00  -0.00
   3   6    -0.03   0.04   0.00    -0.00  -0.00  -0.00    -0.00   0.00   0.00
   4   6    -0.01   0.00  -0.00     0.00   0.00  -0.00     0.00  -0.01  -0.00
   5   6    -0.02  -0.07   0.00    -0.00   0.00  -0.00     0.00   0.00  -0.00
   6   6     0.14  -0.19  -0.00     0.00  -0.00   0.00    -0.00  -0.00   0.00
   7   1    -0.48   0.65   0.00    -0.00   0.00  -0.00     0.00   0.00  -0.00
   8   1     0.08   0.20  -0.00    -0.00  -0.00  -0.00     0.00   0.01   0.00
   9   7     0.00   0.00   0.00     0.16   0.03  -0.09     0.04  -0.29  -0.00
  10   1     0.00   0.00  -0.00    -0.22  -0.65   0.19     0.23   0.58  -0.20
  11   1     0.00  -0.00  -0.00    -0.37   0.54   0.18    -0.40   0.53   0.21
  12   1    -0.16  -0.39   0.00    -0.00  -0.00  -0.00    -0.00  -0.00   0.00
  13   1     0.11  -0.14  -0.00     0.00  -0.00  -0.00     0.00   0.00  -0.00
  14   8    -0.00  -0.00   0.00    -0.00  -0.00  -0.00     0.00   0.00   0.00
  15   6    -0.00  -0.00   0.00     0.00  -0.00  -0.00    -0.00  -0.00  -0.00
  16   1     0.00   0.00  -0.00    -0.00   0.00  -0.00     0.00   0.00  -0.00
  17   1     0.00   0.01  -0.01     0.00   0.00  -0.00    -0.00   0.00  -0.00
  18   1     0.00   0.01   0.01     0.00   0.00   0.00     0.00   0.00   0.00
