      -----------------------------------------------------------      
     |                   =====================                   |     
     |                           x T B                           |     
     |                   =====================                   |     
     |                         S. Grimme                         |     
     |          Mulliken Center for Theoretical Chemistry        |     
     |                    University of Bonn                     |     
      -----------------------------------------------------------      

   * xtb version 6.4.1 (afa7bdf) compiled by 'ehlert@majestix' on 2021-06-10

   xtb is free software: you can redistribute it and/or modify it under
   the terms of the GNU Lesser General Public License as published by
   the Free Software Foundation, either version 3 of the License, or
   (at your option) any later version.
   
   xtb is distributed in the hope that it will be useful,
   but WITHOUT ANY WARRANTY; without even the implied warranty of
   MERCHANTABILITY or FITNESS FOR A PARTICULAR PURPOSE.  See the
   GNU Lesser General Public License for more details.
   
   Cite this work as:
   * C. Bannwarth, E. Caldeweyher, S. Ehlert, A. Hansen, P. Pracht,
     J. Seibert, S. Spicher, S. Grimme, WIREs Comput. Mol. Sci., 2020, 11,
     e01493. DOI: 10.1002/wcms.1493
   
   for GFN2-xTB:
   * C. Bannwarth, S. Ehlert and S. Grimme., J. Chem. Theory Comput., 2019,
     15, 1652-1671. DOI: 10.1021/acs.jctc.8b01176
   for GFN1-xTB:
   * S. Grimme, C. Bannwarth, P. Shushkov, J. Chem. Theory Comput., 2017,
     13, 1989-2009. DOI: 10.1021/acs.jctc.7b00118
   for GFN0-xTB:
   * P. Pracht, E. Caldeweyher, S. Ehlert, S. Grimme, ChemRxiv, 2019, preprint.
     DOI: 10.26434/chemrxiv.8326202.v1
   for GFN-FF:
   * S. Spicher and S. Grimme, Angew. Chem. Int. Ed., 2020, 59, 15665-15673.
     DOI: 10.1002/anie.202004239
   
   for DFT-D4:
   * E. Caldeweyher, C. Bannwarth and S. Grimme, J. Chem. Phys., 2017,
     147, 034112. DOI: 10.1063/1.4993215
   * E. Caldeweyher, S. Ehlert, A. Hansen, H. Neugebauer, S. Spicher,
     C. Bannwarth and S. Grimme, J. Chem. Phys., 2019, 150, 154122.
     DOI: 10.1063/1.5090222
   * E. Caldeweyher, J.-M. Mewes, S. Ehlert and S. Grimme, Phys. Chem. Chem. Phys.
     2020, 22, 8499-8512. DOI: 10.1039/D0CP00502A
   
   for sTDA-xTB:
   * S. Grimme and C. Bannwarth, J. Chem. Phys., 2016, 145, 054103.
     DOI: 10.1063/1.4959605
   
   in the mass-spec context:
   * V. Asgeirsson, C. Bauer and S. Grimme, Chem. Sci., 2017, 8, 4879.
     DOI: 10.1039/c7sc00601b
   * J. Koopman and S. Grimme, ACS Omega 2019, 4, 12, 15120-15133.
     DOI: 10.1021/acsomega.9b02011
   
   for metadynamics refer to:
   * S. Grimme, J. Chem. Theory Comput., 2019, 155, 2847-2862
     DOI: 10.1021/acs.jctc.9b00143
   
   for SPH calculations refer to:
   * S. Spicher and S. Grimme, J. Chem. Theory Comput., 2021, 17, 1701-1714
     DOI: 10.1021/acs.jctc.0c01306
   
   with help from (in alphabetical order)
   P. Atkinson, C. Bannwarth, F. Bohle, G. Brandenburg, E. Caldeweyher
   M. Checinski, S. Dohm, S. Ehlert, S. Ehrlich, I. Gerasimov, J. Koopman
   C. Lavigne, S. Lehtola, F. März, M. Müller, F. Musil, H. Neugebauer
   J. Pisarek, C. Plett, P. Pracht, J. Seibert, P. Shushkov, S. Spicher
   M. Stahn, M. Steiner, T. Strunk, J. Stückrath, T. Rose, and J. Unsleber
   
 * started run on 2021/11/15 at 09:23:09.437     

           -------------------------------------------------
          |                Calculation Setup                |
           -------------------------------------------------

          program call               : xtb 25_4-chloroaniline.xyz --gfn2 --chrg 0 --uhf 0 --alpb water -P 1
          coordinate file            : 25_4-chloroaniline.xyz
          omp threads                :                     1
          number of atoms            :                    14
          number of electrons        :                    42
          charge                     :                     0
          spin                       :                   0.0
          first test random number   :      0.93418393908331

   ID    Z sym.   atoms
    1    6 C      1-6
    2    1 H      7-10, 12, 13
    3    7 N      11
    4   17 Cl     14

           -------------------------------------------------
          |                 G F N 2 - x T B                 |
           -------------------------------------------------

        Reference                      10.1021/acs.jctc.8b01176
      * Hamiltonian:
        H0-scaling (s, p, d)           1.850000    2.230000    2.230000
        zeta-weighting                 0.500000
      * Dispersion:
        s8                             2.700000
        a1                             0.520000
        a2                             5.000000
        s9                             5.000000
      * Repulsion:
        kExp                           1.500000    1.000000
        rExp                           1.000000
      * Coulomb:
        alpha                          2.000000
        third order                    shell-resolved
        anisotropic                    true
        a3                             3.000000
        a5                             4.000000
        cn-shift                       1.200000
        cn-exp                         4.000000
        max-rad                        5.000000

      * Solvation model:               ALPB
        Solvent                        water
        Parameter file                 internal GFN2-xTB/ALPB
        Dielectric constant                8.0200E+01
        Reference state                gsolv [1 M gas/solution]
        Free energy shift                  1.0808E-03 Eh       6.7819E-01 kcal/mol
        Temperature                        2.9815E+02 K
        Density                            1.0000E+00 kg/L
        Solvent mass                       1.8000E+01 g/mol
        Interaction kernel             P16
        Born radius scaling (c1)           1.4744E+00
        Born radii integrator          GBOBC
        Born offset                        0.0000E+00 a0       0.0000E+00 AA
        H-bond correction              true
        Ion screening                  false
        Surface tension                    1.0000E-05 Eh       1.5569E+01 dyn/cm
        Grid points                               230 per atom
q/qsh data taken from xtbrestart
CAMM data taken from xtbrestart

          ...................................................
          :                      SETUP                      :
          :.................................................:
          :  # basis functions                  44          :
          :  # atomic orbitals                  43          :
          :  # shells                           23          :
          :  # electrons                        42          :
          :  max. iterations                   250          :
          :  Hamiltonian                  GFN2-xTB          :
          :  restarted?                       true          :
          :  GBSA solvation                   true          :
          :  PC potential                    false          :
          :  electronic temp.          300.0000000     K    :
          :  accuracy                    1.0000000          :
          :  -> integral cutoff          0.2500000E+02      :
          :  -> integral neglect         0.1000000E-07      :
          :  -> SCF convergence          0.1000000E-05 Eh   :
          :  -> wf. convergence          0.1000000E-03 e    :
          :  Broyden damping             0.4000000          :
          ...................................................

 iter      E             dE          RMSdq      gap      omega  full diag
   1    -23.7019586 -0.237020E+02  0.642E-05    3.63       0.0  T
   2    -23.7019586 -0.729017E-11  0.511E-05    3.63     523.2  T
   3    -23.7019586 -0.462919E-11  0.380E-05    3.63     703.5  T

   *** convergence criteria satisfied after 3 iterations ***

         #    Occupation            Energy/Eh            Energy/eV
      -------------------------------------------------------------
         1        2.0000           -1.0592140             -28.8227
       ...           ...                  ...                  ...
        15        2.0000           -0.4624379             -12.5836
        16        2.0000           -0.4471476             -12.1675
        17        2.0000           -0.4326999             -11.7744
        18        2.0000           -0.4189027             -11.3989
        19        2.0000           -0.4164985             -11.3335
        20        2.0000           -0.4068882             -11.0720
        21        2.0000           -0.3616283              -9.8404 (HOMO)
        22                         -0.2281180              -6.2074 (LUMO)
        23                         -0.2170295              -5.9057
        24                         -0.1426533              -3.8818
        25                         -0.0990924              -2.6964
        26                          0.0170804               0.4648
       ...                                ...                  ...
        43                          0.6293198              17.1247
      -------------------------------------------------------------
                  HL-Gap            0.1335104 Eh            3.6330 eV
             Fermi-level           -0.2948731 Eh           -8.0239 eV

 SCC (total)                   0 d,  0 h,  0 min,  0.007 sec
 SCC setup                      ...        0 min,  0.000 sec (  5.686%)
 Dispersion                     ...        0 min,  0.000 sec (  1.470%)
 classical contributions        ...        0 min,  0.000 sec (  0.319%)
 integral evaluation            ...        0 min,  0.002 sec ( 21.946%)
 iterations                     ...        0 min,  0.002 sec ( 28.124%)
 molecular gradient             ...        0 min,  0.003 sec ( 39.495%)
 printout                       ...        0 min,  0.000 sec (  2.604%)

         :::::::::::::::::::::::::::::::::::::::::::::::::::::
         ::                     SUMMARY                     ::
         :::::::::::::::::::::::::::::::::::::::::::::::::::::
         :: total energy             -23.377162489157 Eh    ::
         :: total w/o Gsasa/hb       -23.372215518667 Eh    ::
         :: gradient norm              0.018217990700 Eh/a0 ::
         :: HOMO-LUMO gap              3.633001656902 eV    ::
         ::.................................................::
         :: SCC energy               -23.701958612902 Eh    ::
         :: -> isotropic ES            0.019838615928 Eh    ::
         :: -> anisotropic ES          0.000334153952 Eh    ::
         :: -> anisotropic XC          0.012238570110 Eh    ::
         :: -> dispersion             -0.011580366067 Eh    ::
         :: -> Gsolv                  -0.010976994294 Eh    ::
         ::    -> Gelec               -0.006030023804 Eh    ::
         ::    -> Gsasa               -0.002555179927 Eh    ::
         ::    -> Ghb                 -0.003472550261 Eh    ::
         ::    -> Gshift               0.001080759698 Eh    ::
         :: repulsion energy           0.324787086495 Eh    ::
         :: add. restraining           0.000000000000 Eh    ::
         :: total charge              -0.000000000000 e     ::
         :::::::::::::::::::::::::::::::::::::::::::::::::::::

           -------------------------------------------------
          |                Property Printout                |
           -------------------------------------------------

    * Orbital Energies and Occupations

         #    Occupation            Energy/Eh            Energy/eV
      -------------------------------------------------------------
         1        2.0000           -1.0592140             -28.8227
       ...           ...                  ...                  ...
         9        2.0000           -0.5261930             -14.3184
        10        2.0000           -0.5147986             -14.0084
        11        2.0000           -0.4942942             -13.4504
        12        2.0000           -0.4866212             -13.2416
        13        2.0000           -0.4841931             -13.1756
        14        2.0000           -0.4774792             -12.9929
        15        2.0000           -0.4624379             -12.5836
        16        2.0000           -0.4471476             -12.1675
        17        2.0000           -0.4326999             -11.7744
        18        2.0000           -0.4189027             -11.3989
        19        2.0000           -0.4164985             -11.3335
        20        2.0000           -0.4068882             -11.0720
        21        2.0000           -0.3616283              -9.8404 (HOMO)
        22                         -0.2281180              -6.2074 (LUMO)
        23                         -0.2170295              -5.9057
        24                         -0.1426533              -3.8818
        25                         -0.0990924              -2.6964
        26                          0.0170804               0.4648
        27                          0.0212699               0.5788
        28                          0.0214075               0.5825
        29                          0.0328762               0.8946
        30                          0.0492051               1.3389
        31                          0.1182912               3.2189
        32                          0.1383406               3.7644
       ...                                ...                  ...
        43                          0.6293198              17.1247
      -------------------------------------------------------------
                  HL-Gap            0.1335104 Eh            3.6330 eV
             Fermi-level           -0.2948731 Eh           -8.0239 eV

     #   Z          covCN         q      C6AA      α(0)
     1   6 C        2.882     0.081    26.199     8.391
     2   6 C        2.936    -0.044    29.084     8.845
     3   6 C        2.920    -0.064    29.582     8.919
     4   6 C        2.891     0.081    26.191     8.391
     5   6 C        2.920    -0.064    29.581     8.919
     6   6 C        2.936    -0.044    29.083     8.845
     7   1 H        0.925     0.054     2.270     2.356
     8   1 H        0.925     0.055     2.255     2.348
     9   1 H        0.925     0.055     2.254     2.348
    10   1 H        0.925     0.054     2.270     2.356
    11   7 N        2.637    -0.315    28.100     7.873
    12   1 H        0.860     0.203     1.090     1.635
    13   1 H        0.860     0.203     1.089     1.635
    14  17 Cl       0.942    -0.258   107.349    15.851

 Mol. C6AA /au·bohr⁶  :       3094.690686
 Mol. C8AA /au·bohr⁸  :      84905.074225
 Mol. α(0) /au        :         88.711016


Wiberg/Mayer (AO) data.
largest (>0.10) Wiberg bond orders for each atom

 ---------------------------------------------------------------------------
     #   Z sym  total        # sym  WBO       # sym  WBO       # sym  WBO
 ---------------------------------------------------------------------------
     1   6 C    3.882 --     2 C    1.400     6 C    1.400    14 Cl   0.916
     2   6 C    3.988 --     3 C    1.459     1 C    1.400     7 H    0.968
                             5 C    0.101
     3   6 C    3.985 --     2 C    1.459     4 C    1.341     8 H    0.966
                             6 C    0.101
     4   6 C    3.978 --     3 C    1.341     5 C    1.341    11 N    1.175
     5   6 C    3.985 --     6 C    1.460     4 C    1.341     9 H    0.966
                             2 C    0.101
     6   6 C    3.988 --     5 C    1.460     1 C    1.400    10 H    0.968
                             3 C    0.101
     7   1 H    0.997 --     2 C    0.968
     8   1 H    0.997 --     3 C    0.966
     9   1 H    0.997 --     5 C    0.966
    10   1 H    0.997 --     6 C    0.968
    11   7 N    3.235 --     4 C    1.175    12 H    0.939    13 H    0.939
    12   1 H    0.958 --    11 N    0.939
    13   1 H    0.958 --    11 N    0.939
    14  17 Cl   1.025 --     1 C    0.916
 ---------------------------------------------------------------------------

Topologies differ in total number of bonds
Writing topology from bond orders to xtbtopo.mol

molecular dipole:
                 x           y           z       tot (Debye)
 q only:        2.315      -0.000       0.262
   full:        1.956       0.000       0.479       5.119
molecular quadrupole (traceless):
                xx          xy          yy          xz          yz          zz
 q only:        1.049      -0.000       2.021       2.696      -0.000      -3.070
  q+dip:        3.037       0.000       4.233       5.114      -0.001      -7.270
   full:        2.947       0.000       2.365       5.146      -0.001      -5.312


           -------------------------------------------------
          | TOTAL ENERGY              -23.377162489157 Eh   |
          | GRADIENT NORM               0.018217990700 Eh/α |
          | HOMO-LUMO GAP               3.633001656902 eV   |
           -------------------------------------------------

------------------------------------------------------------------------
 * finished run on 2021/11/15 at 09:23:09.468     
------------------------------------------------------------------------
 total:
 * wall-time:     0 d,  0 h,  0 min,  0.031 sec
 *  cpu-time:     0 d,  0 h,  0 min,  0.016 sec
 * ratio c/w:     0.505 speedup
 SCF:
 * wall-time:     0 d,  0 h,  0 min,  0.007 sec
 *  cpu-time:     0 d,  0 h,  0 min,  0.000 sec
 * ratio c/w:     0.000 speedup

