      -----------------------------------------------------------      
     |                   =====================                   |     
     |                           x T B                           |     
     |                   =====================                   |     
     |                         S. Grimme                         |     
     |          Mulliken Center for Theoretical Chemistry        |     
     |                    University of Bonn                     |     
      -----------------------------------------------------------      

   * xtb version 6.4.1 (afa7bdf) compiled by 'ehlert@majestix' on 2021-06-10

   xtb is free software: you can redistribute it and/or modify it under
   the terms of the GNU Lesser General Public License as published by
   the Free Software Foundation, either version 3 of the License, or
   (at your option) any later version.
   
   xtb is distributed in the hope that it will be useful,
   but WITHOUT ANY WARRANTY; without even the implied warranty of
   MERCHANTABILITY or FITNESS FOR A PARTICULAR PURPOSE.  See the
   GNU Lesser General Public License for more details.
   
   Cite this work as:
   * C. Bannwarth, E. Caldeweyher, S. Ehlert, A. Hansen, P. Pracht,
     J. Seibert, S. Spicher, S. Grimme, WIREs Comput. Mol. Sci., 2020, 11,
     e01493. DOI: 10.1002/wcms.1493
   
   for GFN2-xTB:
   * C. Bannwarth, S. Ehlert and S. Grimme., J. Chem. Theory Comput., 2019,
     15, 1652-1671. DOI: 10.1021/acs.jctc.8b01176
   for GFN1-xTB:
   * S. Grimme, C. Bannwarth, P. Shushkov, J. Chem. Theory Comput., 2017,
     13, 1989-2009. DOI: 10.1021/acs.jctc.7b00118
   for GFN0-xTB:
   * P. Pracht, E. Caldeweyher, S. Ehlert, S. Grimme, ChemRxiv, 2019, preprint.
     DOI: 10.26434/chemrxiv.8326202.v1
   for GFN-FF:
   * S. Spicher and S. Grimme, Angew. Chem. Int. Ed., 2020, 59, 15665-15673.
     DOI: 10.1002/anie.202004239
   
   for DFT-D4:
   * E. Caldeweyher, C. Bannwarth and S. Grimme, J. Chem. Phys., 2017,
     147, 034112. DOI: 10.1063/1.4993215
   * E. Caldeweyher, S. Ehlert, A. Hansen, H. Neugebauer, S. Spicher,
     C. Bannwarth and S. Grimme, J. Chem. Phys., 2019, 150, 154122.
     DOI: 10.1063/1.5090222
   * E. Caldeweyher, J.-M. Mewes, S. Ehlert and S. Grimme, Phys. Chem. Chem. Phys.
     2020, 22, 8499-8512. DOI: 10.1039/D0CP00502A
   
   for sTDA-xTB:
   * S. Grimme and C. Bannwarth, J. Chem. Phys., 2016, 145, 054103.
     DOI: 10.1063/1.4959605
   
   in the mass-spec context:
   * V. Asgeirsson, C. Bauer and S. Grimme, Chem. Sci., 2017, 8, 4879.
     DOI: 10.1039/c7sc00601b
   * J. Koopman and S. Grimme, ACS Omega 2019, 4, 12, 15120-15133.
     DOI: 10.1021/acsomega.9b02011
   
   for metadynamics refer to:
   * S. Grimme, J. Chem. Theory Comput., 2019, 155, 2847-2862
     DOI: 10.1021/acs.jctc.9b00143
   
   for SPH calculations refer to:
   * S. Spicher and S. Grimme, J. Chem. Theory Comput., 2021, 17, 1701-1714
     DOI: 10.1021/acs.jctc.0c01306
   
   with help from (in alphabetical order)
   P. Atkinson, C. Bannwarth, F. Bohle, G. Brandenburg, E. Caldeweyher
   M. Checinski, S. Dohm, S. Ehlert, S. Ehrlich, I. Gerasimov, J. Koopman
   C. Lavigne, S. Lehtola, F. März, M. Müller, F. Musil, H. Neugebauer
   J. Pisarek, C. Plett, P. Pracht, J. Seibert, P. Shushkov, S. Spicher
   M. Stahn, M. Steiner, T. Strunk, J. Stückrath, T. Rose, and J. Unsleber
   
 * started run on 2021/11/15 at 09:36:14.972     

           -------------------------------------------------
          |                Calculation Setup                |
           -------------------------------------------------

          program call               : xtb 16_2-chlorophenol.xyz --gfn2 --chrg 0 --uhf 0 --alpb water --ohess -P 1
          coordinate file            : 16_2-chlorophenol.xyz
          omp threads                :                     1
          number of atoms            :                    13
          number of electrons        :                    42
          charge                     :                     0
          spin                       :                   0.0
          first test random number   :      0.24436408689755

   ID    Z sym.   atoms
    1    6 C      1-6
    2    1 H      7, 9-12
    3    8 O      8
    4   17 Cl     13

           -------------------------------------------------
          |                 G F N 2 - x T B                 |
           -------------------------------------------------

        Reference                      10.1021/acs.jctc.8b01176
      * Hamiltonian:
        H0-scaling (s, p, d)           1.850000    2.230000    2.230000
        zeta-weighting                 0.500000
      * Dispersion:
        s8                             2.700000
        a1                             0.520000
        a2                             5.000000
        s9                             5.000000
      * Repulsion:
        kExp                           1.500000    1.000000
        rExp                           1.000000
      * Coulomb:
        alpha                          2.000000
        third order                    shell-resolved
        anisotropic                    true
        a3                             3.000000
        a5                             4.000000
        cn-shift                       1.200000
        cn-exp                         4.000000
        max-rad                        5.000000

      * Solvation model:               ALPB
        Solvent                        water
        Parameter file                 internal GFN2-xTB/ALPB
        Dielectric constant                8.0200E+01
        Reference state                gsolv [1 M gas/solution]
        Free energy shift                  1.0808E-03 Eh       6.7819E-01 kcal/mol
        Temperature                        2.9815E+02 K
        Density                            1.0000E+00 kg/L
        Solvent mass                       1.8000E+01 g/mol
        Interaction kernel             P16
        Born radius scaling (c1)           1.4744E+00
        Born radii integrator          GBOBC
        Born offset                        0.0000E+00 a0       0.0000E+00 AA
        H-bond correction              true
        Ion screening                  false
        Surface tension                    1.0000E-05 Eh       1.5569E+01 dyn/cm
        Grid points                               230 per atom

          ...................................................
          :                      SETUP                      :
          :.................................................:
          :  # basis functions                  43          :
          :  # atomic orbitals                  42          :
          :  # shells                           22          :
          :  # electrons                        42          :
          :  max. iterations                   250          :
          :  Hamiltonian                  GFN2-xTB          :
          :  restarted?                      false          :
          :  GBSA solvation                   true          :
          :  PC potential                    false          :
          :  electronic temp.          300.0000000     K    :
          :  accuracy                    1.0000000          :
          :  -> integral cutoff          0.2500000E+02      :
          :  -> integral neglect         0.1000000E-07      :
          :  -> SCF convergence          0.1000000E-05 Eh   :
          :  -> wf. convergence          0.1000000E-03 e    :
          :  Broyden damping             0.4000000          :
          ...................................................

 iter      E             dE          RMSdq      gap      omega  full diag
   1    -24.2991106 -0.242991E+02  0.516E+00    4.21       0.0  T
   2    -24.3086971 -0.958647E-02  0.301E+00    4.15       1.0  T
   3    -24.3060550  0.264207E-02  0.784E-01    4.04       1.0  T
   4    -24.3103968 -0.434186E-02  0.267E-01    4.12       1.0  T
   5    -24.3106265 -0.229695E-03  0.158E-01    4.14       1.0  T
   6    -24.3106776 -0.510773E-04  0.114E-01    4.12       1.0  T
   7    -24.3107426 -0.649796E-04  0.577E-02    4.13       1.0  T
   8    -24.3107534 -0.108267E-04  0.323E-02    4.13       1.0  T
   9    -24.3107602 -0.679909E-05  0.970E-03    4.12       2.9  T
  10    -24.3107605 -0.289108E-06  0.649E-03    4.12       4.3  T
  11    -24.3107607 -0.156217E-06  0.346E-03    4.12       8.0  T
  12    -24.3107607 -0.450559E-07  0.255E-03    4.12      10.9  T
  13    -24.3107608 -0.421258E-07  0.606E-04    4.12      45.8  T
  14    -24.3107608 -0.132459E-08  0.257E-04    4.12     107.9  T

   *** convergence criteria satisfied after 14 iterations ***

         #    Occupation            Energy/Eh            Energy/eV
      -------------------------------------------------------------
         1        2.0000           -1.0689930             -29.0888
       ...           ...                  ...                  ...
        15        2.0000           -0.4779807             -13.0065
        16        2.0000           -0.4519642             -12.2986
        17        2.0000           -0.4512165             -12.2782
        18        2.0000           -0.4380659             -11.9204
        19        2.0000           -0.4288583             -11.6698
        20        2.0000           -0.4069091             -11.0726
        21        2.0000           -0.3886929             -10.5769 (HOMO)
        22                         -0.2371229              -6.4524 (LUMO)
        23                         -0.2264869              -6.1630
        24                         -0.1534772              -4.1763
        25                         -0.1070739              -2.9136
        26                          0.0018550               0.0505
       ...                                ...                  ...
        42                          0.6274246              17.0731
      -------------------------------------------------------------
                  HL-Gap            0.1515701 Eh            4.1244 eV
             Fermi-level           -0.3129079 Eh           -8.5147 eV

 SCC (total)                   0 d,  0 h,  0 min,  0.009 sec
 SCC setup                      ...        0 min,  0.000 sec (  3.870%)
 Dispersion                     ...        0 min,  0.000 sec (  0.999%)
 classical contributions        ...        0 min,  0.000 sec (  0.207%)
 integral evaluation            ...        0 min,  0.001 sec ( 15.981%)
 iterations                     ...        0 min,  0.005 sec ( 50.201%)
 molecular gradient             ...        0 min,  0.002 sec ( 26.938%)
 printout                       ...        0 min,  0.000 sec (  1.569%)

         :::::::::::::::::::::::::::::::::::::::::::::::::::::
         ::                     SUMMARY                     ::
         :::::::::::::::::::::::::::::::::::::::::::::::::::::
         :: total energy             -24.012812904491 Eh    ::
         :: total w/o Gsasa/hb       -24.009002688747 Eh    ::
         :: gradient norm              0.017790288297 Eh/a0 ::
         :: HOMO-LUMO gap              4.124431753316 eV    ::
         ::.................................................::
         :: SCC energy               -24.310760753050 Eh    ::
         :: -> isotropic ES            0.029058226344 Eh    ::
         :: -> anisotropic ES         -0.001931487242 Eh    ::
         :: -> anisotropic XC          0.006990996349 Eh    ::
         :: -> dispersion             -0.010923214466 Eh    ::
         :: -> Gsolv                  -0.007650983638 Eh    ::
         ::    -> Gelec               -0.003840767894 Eh    ::
         ::    -> Gsasa                0.000071009390 Eh    ::
         ::    -> Ghb                 -0.004961984832 Eh    ::
         ::    -> Gshift               0.001080759698 Eh    ::
         :: repulsion energy           0.297929174586 Eh    ::
         :: add. restraining           0.000000000000 Eh    ::
         :: total charge              -0.000000000000 e     ::
         :::::::::::::::::::::::::::::::::::::::::::::::::::::

      ----------------------------------------------------------- 
     |                   =====================                   |
     |                        A N C O P T                        |
     |                   =====================                   |
     |               Approximate Normal Coordinate               |
     |                Rational Function Optimizer                |
      ----------------------------------------------------------- 

          ...................................................
          :                      SETUP                      :
          :.................................................:
          :   optimization level            normal          :
          :   max. optcycles                   200          :
          :   ANC micro-cycles                  20          :
          :   degrees of freedom                33          :
          :.................................................:
          :   RF solver                   davidson          :
          :   write xtbopt.log                true          :
          :   linear?                        false          :
          :   energy convergence         0.5000000E-05 Eh   :
          :   grad. convergence          0.1000000E-02 Eh/α :
          :   maximium RF displ.         1.0000000          :
          :   Hlow (freq-cutoff)         0.1000000E-01      :
          :   Hmax (freq-cutoff)         5.0000000          :
          :   S6 in model hess.         20.0000000          :
          ...................................................

generating ANC from model Hessian ...
Using Lindh-Hessian (1995)
 Shifting diagonal of input Hessian by   2.161582730870207E-003
 Lowest  eigenvalues of input Hessian
    0.000000    0.000000    0.000000    0.000000    0.000000    0.000000
    0.010000    0.013332    0.022228    0.022739    0.030512    0.045387
    0.058055    0.060758    0.082553    0.090926    0.097596    0.099272
 Highest eigenvalues
    1.436104    1.590345    1.716285    1.857143    1.976263    2.050314
 

........................................................................
.............................. CYCLE    1 ..............................
........................................................................
   1    -24.3107608 -0.243108E+02  0.129E-04    4.12       0.0  T
   2    -24.3107608 -0.684643E-10  0.734E-05    4.12     378.0  T
   3    -24.3107608 -0.174190E-10  0.481E-05    4.12     576.1  T
     SCC iter.                  ...        0 min,  0.001 sec
     gradient                   ...        0 min,  0.002 sec
 * total energy  :   -24.0128129 Eh     change       -0.1711946E-09 Eh
   gradient norm :     0.0177917 Eh/α   predicted     0.0000000E+00 (-100.00%)
   displ. norm   :     0.0691604 α      lambda       -0.9547147E-03
   maximum displ.:     0.0427702 α      in ANC's #18, #17, #7, ...

........................................................................
.............................. CYCLE    2 ..............................
........................................................................
   1    -24.3228153 -0.243228E+02  0.102E-01    4.17       0.0  T
   2    -24.3228215 -0.617073E-05  0.600E-02    4.17       1.0  T
   3    -24.3228196  0.195982E-05  0.291E-02    4.17       1.0  T
   4    -24.3228240 -0.449115E-05  0.615E-03    4.17       4.5  T
   5    -24.3228241 -0.788733E-07  0.478E-03    4.17       5.8  T
   6    -24.3228242 -0.824066E-07  0.319E-03    4.17       8.7  T
   7    -24.3228243 -0.541057E-07  0.155E-03    4.17      17.9  T
   8    -24.3228243 -0.124579E-07  0.918E-04    4.17      30.2  T
   9    -24.3228243 -0.339103E-08  0.467E-04    4.17      59.4  T
     SCC iter.                  ...        0 min,  0.003 sec
     gradient                   ...        0 min,  0.002 sec
 * total energy  :   -24.0133735 Eh     change       -0.5606408E-03 Eh
   gradient norm :     0.0061933 Eh/α   predicted    -0.4796400E-03 ( -14.45%)
   displ. norm   :     0.0148644 α      lambda       -0.5327350E-04
   maximum displ.:     0.0089039 α      in ANC's #18, #7, #17, ...

........................................................................
.............................. CYCLE    3 ..............................
........................................................................
   1    -24.3248788 -0.243249E+02  0.281E-02    4.17       0.0  T
   2    -24.3248806 -0.179705E-05  0.163E-02    4.18       1.7  T
   3    -24.3248810 -0.396830E-06  0.101E-02    4.18       2.8  T
   4    -24.3248812 -0.228038E-06  0.330E-03    4.18       8.4  T
   5    -24.3248813 -0.274166E-07  0.253E-03    4.18      11.0  T
   6    -24.3248813 -0.200200E-07  0.190E-03    4.18      14.6  T
   7    -24.3248813 -0.218997E-07  0.752E-04    4.18      36.9  T
   8    -24.3248813 -0.283159E-08  0.389E-04    4.18      71.4  T
     SCC iter.                  ...        0 min,  0.003 sec
     gradient                   ...        0 min,  0.002 sec
 * total energy  :   -24.0134047 Eh     change       -0.3110914E-04 Eh
   gradient norm :     0.0025991 Eh/α   predicted    -0.2664467E-04 ( -14.35%)
   displ. norm   :     0.0040105 α      lambda       -0.6684597E-05
   maximum displ.:     0.0016124 α      in ANC's #13, #11, #5, ...

........................................................................
.............................. CYCLE    4 ..............................
........................................................................
   1    -24.3248190 -0.243248E+02  0.966E-03    4.17       0.0  T
   2    -24.3248194 -0.374544E-06  0.584E-03    4.18       4.7  T
   3    -24.3248195 -0.953594E-07  0.366E-03    4.17       7.6  T
   4    -24.3248195 -0.219158E-07  0.162E-03    4.17      17.2  T
   5    -24.3248195 -0.707461E-08  0.122E-03    4.17      22.7  T
   6    -24.3248195 -0.464559E-08  0.954E-04    4.17      29.1  T
   7    -24.3248195 -0.619395E-08  0.291E-04    4.17      95.4  T
     SCC iter.                  ...        0 min,  0.002 sec
     gradient                   ...        0 min,  0.002 sec
 * total energy  :   -24.0134090 Eh     change       -0.4362550E-05 Eh
   gradient norm :     0.0008935 Eh/α   predicted    -0.3343595E-05 ( -23.36%)
   displ. norm   :     0.0046184 α      lambda       -0.1482019E-05
   maximum displ.:     0.0021617 α      in ANC's #5, #7, #13, ...

   *** GEOMETRY OPTIMIZATION CONVERGED AFTER 4 ITERATIONS ***

------------------------------------------------------------------------
 total energy gain   :        -0.0005961 Eh       -0.3741 kcal/mol
 total RMSD          :         0.0231242 a0        0.0122 Å
 total power (kW/mol):        -0.3912734 (step)  -56.9581 (real)
------------------------------------------------------------------------

 ANCopt (total)                0 d,  0 h,  0 min,  0.027 sec
 optimizer setup                ...        0 min,  0.000 sec (  0.590%)
 model hessian                  ...        0 min,  0.001 sec (  2.961%)
 ANC generation                 ...        0 min,  0.000 sec (  0.643%)
 coordinate transformation      ...        0 min,  0.000 sec (  0.099%)
 single point calculation       ...        0 min,  0.025 sec ( 90.296%)
 optimization log               ...        0 min,  0.001 sec (  2.943%)
 hessian update                 ...        0 min,  0.000 sec (  0.088%)
 rational function              ...        0 min,  0.000 sec (  1.296%)

================
 final structure:
================
13
 xtb: 6.4.1 (afa7bdf)
C        -1.82341821599623   -1.27251311521397   -0.00007098924972
C        -2.34877692510444    0.00912081888139   -0.00035087001243
C        -1.51256543196250    1.10807569368462   -0.00030411657462
C        -0.12882335844713    0.94653924648056    0.00000039650420
C         0.38114691392760   -0.35110209035030    0.00025840477596
C        -0.45152673116367   -1.45400831061841    0.00022695014645
H        -0.02559583796647   -2.44457485534111    0.00044420735081
O         0.65494458182323    2.04504183384248    0.00003759606430
H         1.59199250415145    1.78566636860525    0.00031889675323
H        -3.41682847351841    0.15517447518570   -0.00058220066043
H        -1.90199506260655    2.11278699143007   -0.00049949662219
H        -2.47452442910901   -2.13099503143741   -0.00009235723326
Cl        2.12076846597214   -0.57842802514888    0.00066357875772
 
 Bond Distances (Angstroems)
 ---------------------------
C1-C2=1.3851         C1-C6=1.3838         C1-H12=1.0775        C2-C1=1.3851         C2-C3=1.3809         C2-H10=1.0780        
C3-C2=1.3809         C3-C4=1.3931         C3-H11=1.0775        C4-C3=1.3931         C4-C5=1.3943         C4-O8=1.3494         
C5-C4=1.3943         C5-C6=1.3819         C5-Cl13=1.7544       C6-C1=1.3838         C6-C5=1.3819         C6-H7=1.0783         
H7-C6=1.0783         O8-C4=1.3494         O8-H9=0.9723         H9-O8=0.9723         H10-C2=1.0780        H11-C3=1.0775        
H12-C1=1.0775        Cl13-C5=1.7544       
 C  H  Rav=1.0778 sigma=0.0003  Rmin=1.0775  Rmax=1.0783     4
 C  C  Rav=1.3865 sigma=0.0052  Rmin=1.3809  Rmax=1.3943     6
 O  H  Rav=0.9723 sigma=0.0000  Rmin=0.9723  Rmax=0.9723     1
 O  C  Rav=1.3494 sigma=0.0000  Rmin=1.3494  Rmax=1.3494     1
 Cl C  Rav=1.7544 sigma=0.0000  Rmin=1.7544  Rmax=1.7544     1
 
 selected bond angles (degree)
 --------------------
C6-C1-C2=119.83                H12-C1-C2=120.53               H12-C1-C6=119.64               C3-C2-C1=120.44                
H10-C2-C1=120.08               H10-C2-C3=119.48               C4-C3-C2=120.61                H11-C3-C2=121.55               
H11-C3-C4=117.85               C5-C4-C3=118.11                O8-C4-C3=118.85                O8-C4-C5=123.04                
C6-C5-C4=121.49                Cl13-C5-C4=118.90              Cl13-C5-C6=119.61              C5-C6-C1=119.52                
H7-C6-C1=120.80                H7-C6-C5=119.68                H9-O8-C4=110.04                
 
 selected dihedral angles (degree)
 ---------------------------------
C3-C2-C1-C6=  0.00            C3-C2-C1-H12=180.00           H10-C2-C1-C6=180.00           H10-C2-C1-H12=  0.00          
C4-C3-C2-C1=  0.00            C4-C3-C2-H10=180.00           H11-C3-C2-C1=180.00           H11-C3-C2-H10=  0.00          
C5-C4-C3-C2=  0.00            C5-C4-C3-H11=180.00           O8-C4-C3-C2=180.00            O8-C4-C3-H11=  0.00           
C6-C5-C4-C3=  0.00            C6-C5-C4-O8=180.00            Cl13-C5-C4-C3=180.00          Cl13-C5-C4-O8=  0.00          
C5-C6-C1-C2=  0.00            C5-C6-C1-H12=180.00           H7-C6-C1-C2=180.00            H7-C6-C1-H12=  0.00           
C1-C6-C5-C4=  0.00            C1-C6-C5-Cl13=180.00          H7-C6-C5-C4=180.00            H7-C6-C5-Cl13=  0.00          
H9-O8-C4-C3=180.00            H9-O8-C4-C5=  0.00            
           -------------------------------------------------
          |                Final Singlepoint                |
           -------------------------------------------------

          ...................................................
          :                      SETUP                      :
          :.................................................:
          :  # basis functions                  43          :
          :  # atomic orbitals                  42          :
          :  # shells                           22          :
          :  # electrons                        42          :
          :  max. iterations                   250          :
          :  Hamiltonian                  GFN2-xTB          :
          :  restarted?                      false          :
          :  GBSA solvation                   true          :
          :  PC potential                    false          :
          :  electronic temp.          300.0000000     K    :
          :  accuracy                    1.0000000          :
          :  -> integral cutoff          0.2500000E+02      :
          :  -> integral neglect         0.1000000E-07      :
          :  -> SCF convergence          0.1000000E-05 Eh   :
          :  -> wf. convergence          0.1000000E-03 e    :
          :  Broyden damping             0.4000000          :
          ...................................................

 iter      E             dE          RMSdq      gap      omega  full diag
   1    -24.3248195 -0.243248E+02  0.146E-04    4.17       0.0  T
   2    -24.3248195 -0.671321E-10  0.104E-04    4.17     267.5  T
   3    -24.3248195 -0.275726E-10  0.800E-05    4.17     346.8  T

   *** convergence criteria satisfied after 3 iterations ***

         #    Occupation            Energy/Eh            Energy/eV
      -------------------------------------------------------------
         1        2.0000           -1.0691672             -29.0935
       ...           ...                  ...                  ...
        15        2.0000           -0.4793591             -13.0440
        16        2.0000           -0.4522743             -12.3070
        17        2.0000           -0.4519749             -12.2989
        18        2.0000           -0.4375204             -11.9055
        19        2.0000           -0.4284818             -11.6596
        20        2.0000           -0.4075145             -11.0890
        21        2.0000           -0.3883725             -10.5682 (HOMO)
        22                         -0.2349512              -6.3933 (LUMO)
        23                         -0.2240182              -6.0958
        24                         -0.1512567              -4.1159
        25                         -0.1023218              -2.7843
        26                          0.0015929               0.0433
       ...                                ...                  ...
        42                          0.6521697              17.7464
      -------------------------------------------------------------
                  HL-Gap            0.1534213 Eh            4.1748 eV
             Fermi-level           -0.3116619 Eh           -8.4808 eV

 SCC (total)                   0 d,  0 h,  0 min,  0.005 sec
 SCC setup                      ...        0 min,  0.000 sec (  4.411%)
 Dispersion                     ...        0 min,  0.000 sec (  0.460%)
 classical contributions        ...        0 min,  0.000 sec (  0.162%)
 integral evaluation            ...        0 min,  0.001 sec ( 22.877%)
 iterations                     ...        0 min,  0.001 sec ( 25.652%)
 molecular gradient             ...        0 min,  0.002 sec ( 43.728%)
 printout                       ...        0 min,  0.000 sec (  2.394%)

         :::::::::::::::::::::::::::::::::::::::::::::::::::::
         ::                     SUMMARY                     ::
         :::::::::::::::::::::::::::::::::::::::::::::::::::::
         :: total energy             -24.013409017605 Eh    ::
         :: total w/o Gsasa/hb       -24.009577332015 Eh    ::
         :: gradient norm              0.000896600065 Eh/a0 ::
         :: HOMO-LUMO gap              4.174806647942 eV    ::
         ::.................................................::
         :: SCC energy               -24.324819514654 Eh    ::
         :: -> isotropic ES            0.028751921731 Eh    ::
         :: -> anisotropic ES         -0.001918558079 Eh    ::
         :: -> anisotropic XC          0.006437320760 Eh    ::
         :: -> dispersion             -0.010969778306 Eh    ::
         :: -> Gsolv                  -0.007601419131 Eh    ::
         ::    -> Gelec               -0.003769733540 Eh    ::
         ::    -> Gsasa                0.000070216589 Eh    ::
         ::    -> Ghb                 -0.004982661877 Eh    ::
         ::    -> Gshift               0.001080759698 Eh    ::
         :: repulsion energy           0.311392175725 Eh    ::
         :: add. restraining           0.000000000000 Eh    ::
         :: total charge               0.000000000000 e     ::
         :::::::::::::::::::::::::::::::::::::::::::::::::::::

           ------------------------------------------------- 
          |                Numerical Hessian                |
           ------------------------------------------------- 
step length          :   0.00500
SCC accuracy         :   0.30000
Hessian scale factor :   1.00000
frozen atoms in %    :   0.00000    0
RMS gradient         :   0.00090
estimated CPU  time      0.01 min
estimated wall time      0.01 min

writing file <hessian>.

 projected vibrational frequencies (cm⁻¹)
eigval :       -0.00    -0.00    -0.00     0.00     0.00     0.00
eigval :      146.99   226.13   252.93   341.69   408.03   418.91
eigval :      463.39   513.19   530.25   657.99   659.11   782.32
eigval :      821.28   871.99   904.46   919.30  1010.85  1077.35
eigval :     1116.70  1149.78  1170.27  1242.98  1266.50  1327.41
eigval :     1428.12  1460.39  1571.34  1591.98  3100.22  3103.54
eigval :     3114.32  3121.30  3387.33
           -------------------------------------------------
          |                Property Printout                |
           -------------------------------------------------

    * Orbital Energies and Occupations

         #    Occupation            Energy/Eh            Energy/eV
      -------------------------------------------------------------
         1        2.0000           -1.0691672             -29.0935
       ...           ...                  ...                  ...
         9        2.0000           -0.5423938             -14.7593
        10        2.0000           -0.5346394             -14.5483
        11        2.0000           -0.5229617             -14.2305
        12        2.0000           -0.4988551             -13.5745
        13        2.0000           -0.4905473             -13.3485
        14        2.0000           -0.4890078             -13.3066
        15        2.0000           -0.4793596             -13.0440
        16        2.0000           -0.4522745             -12.3070
        17        2.0000           -0.4519752             -12.2989
        18        2.0000           -0.4375208             -11.9055
        19        2.0000           -0.4284822             -11.6596
        20        2.0000           -0.4075151             -11.0890
        21        2.0000           -0.3883731             -10.5682 (HOMO)
        22                         -0.2349518              -6.3934 (LUMO)
        23                         -0.2240187              -6.0959
        24                         -0.1512583              -4.1159
        25                         -0.1023223              -2.7843
        26                          0.0015924               0.0433
        27                          0.0059813               0.1628
        28                          0.0076723               0.2088
        29                          0.0213444               0.5808
        30                          0.0753249               2.0497
        31                          0.1206331               3.2826
        32                          0.1388495               3.7783
       ...                                ...                  ...
        42                          0.6521692              17.7464
      -------------------------------------------------------------
                  HL-Gap            0.1534213 Eh            4.1748 eV
             Fermi-level           -0.3116624 Eh           -8.4808 eV

     #   Z          covCN         q      C6AA      α(0)
     1   6 C        2.922    -0.046    29.131     8.851
     2   6 C        2.919    -0.037    28.920     8.819
     3   6 C        2.923    -0.060    29.503     8.907
     4   6 C        2.872     0.145    24.835     8.169
     5   6 C        2.888     0.057    26.716     8.474
     6   6 C        2.947    -0.043    29.077     8.844
     7   1 H        0.926     0.062     2.170     2.303
     8   8 O        1.659    -0.424    21.311     6.232
     9   1 H        0.804     0.368     0.548     1.163
    10   1 H        0.926     0.067     2.119     2.276
    11   1 H        0.926     0.074     2.044     2.236
    12   1 H        0.926     0.064     2.152     2.294
    13  17 Cl       0.951    -0.228   106.355    15.777

 Mol. C6AA /au·bohr⁶  :       2827.468844
 Mol. C8AA /au·bohr⁸  :      78738.855808
 Mol. α(0) /au        :         84.347131


Wiberg/Mayer (AO) data.
largest (>0.10) Wiberg bond orders for each atom

 ---------------------------------------------------------------------------
     #   Z sym  total        # sym  WBO       # sym  WBO       # sym  WBO
 ---------------------------------------------------------------------------
     1   6 C    3.989 --     6 C    1.433     2 C    1.428    12 H    0.967
     2   6 C    3.989 --     3 C    1.457     1 C    1.428    10 H    0.967
     3   6 C    3.984 --     2 C    1.457     4 C    1.355    11 H    0.964
                             6 C    0.107
     4   6 C    3.947 --     3 C    1.355     5 C    1.338     8 O    1.102
     5   6 C    3.887 --     6 C    1.421     4 C    1.338    13 Cl   0.928
     6   6 C    3.987 --     1 C    1.433     5 C    1.421     7 H    0.966
                             3 C    0.107
     7   1 H    0.996 --     6 C    0.966
     8   8 O    2.114 --     4 C    1.102     9 H    0.835
     9   1 H    0.865 --     8 O    0.835
    10   1 H    0.995 --     2 C    0.967
    11   1 H    0.995 --     3 C    0.964
    12   1 H    0.996 --     1 C    0.967
    13  17 Cl   1.068 --     5 C    0.928
 ---------------------------------------------------------------------------

Topologies differ in total number of bonds
Writing topology from bond orders to xtbtopo.mol

molecular dipole:
                 x           y           z       tot (Debye)
 q only:       -0.793      -0.055      -0.000
   full:       -0.329      -0.382       0.000       1.281
molecular quadrupole (traceless):
                xx          xy          yy          xz          yz          zz
 q only:        2.022       3.802      -0.428       0.000       0.001      -1.594
  q+dip:        4.306       1.916       0.133       0.002      -0.000      -4.439
   full:        4.064       2.082      -1.498       0.001       0.000      -2.566

           -------------------------------------------------
          |                Geometry Summary                 |
           -------------------------------------------------

      molecular mass/u    :      128.5564617
   center of mass at/Å    :        0.0678228      -0.0038208       0.0001618
  moments of inertia/u·Å² :        0.1687098E+03   0.3281654E+03   0.4968752E+03
rotational constants/cm⁻¹ :        0.9992089E-01   0.5136932E-01   0.3392730E-01

 * 13 selected distances

     #   Z          #   Z                                           value/Å
     1   6 C        2   6 C                                       1.3851308
     2   6 C        3   6 C                                       1.3809241
     3   6 C        4   6 C                                       1.3931390
     4   6 C        5   6 C                                       1.3942535
     1   6 C        6   6 C                                       1.3838449
     5   6 C        6   6 C                                       1.3819362
     6   6 C        7   1 H                                       1.0782575
     4   6 C        8   8 O                                       1.3494444
     8   8 O        9   1 H                                       0.9722831 (min)
     2   6 C       10   1 H                                       1.0779916
     3   6 C       11   1 H                                       1.0775436
     1   6 C       12   1 H                                       1.0774648
     5   6 C       13  17 Cl                                      1.7544117 (max)

 * 5 distinct bonds (by element types)

   Z      Z             #   av. dist./Å        max./Å        min./Å
   1 H    6 C           4     1.0778144     1.0782575     1.0774648
   6 C    6 C           6     1.3865381     1.3942535     1.3809241
   1 H    8 O           1     0.9722831     0.9722831     0.9722831
   6 C    8 O           1     1.3494444     1.3494444     1.3494444
   6 C   17 Cl          1     1.7544117     1.7544117     1.7544117

           -------------------------------------------------
          |               Frequency Printout                |
           -------------------------------------------------
 projected vibrational frequencies (cm⁻¹)
eigval :       -0.00    -0.00    -0.00     0.00     0.00     0.00
eigval :      146.99   226.13   252.93   341.69   408.03   418.91
eigval :      463.39   513.19   530.25   657.99   659.11   782.32
eigval :      821.28   871.99   904.46   919.30  1010.85  1077.35
eigval :     1116.70  1149.78  1170.27  1242.98  1266.50  1327.41
eigval :     1428.12  1460.39  1571.34  1591.98  3100.22  3103.54
eigval :     3114.32  3121.30  3387.33
 reduced masses (amu)
   1: 30.28   2: 22.52   3: 14.47   4: 18.94   5: 12.03   6: 12.35   7: 15.18   8: 22.20
   9: 11.54  10: 22.78  11:  4.38  12:  7.54  13: 13.96  14: 10.35  15: 12.88  16: 13.58
  17: 11.48  18:  3.33  19: 12.06  20:  3.38  21:  3.82  22:  3.26  23: 11.41  24:  5.54
  25:  4.89  26:  3.27  27:  1.54  28:  5.16  29:  8.50  30: 11.44  31:  9.25  32:  9.98
  33: 11.48  34: 11.64  35:  1.77  36:  1.82  37:  1.87  38:  1.90  39:  1.86
 IR intensities (km·mol⁻¹)
   1:  0.00   2:  0.10   3:  0.35   4:  0.37   5:  0.17   6:  0.00   7:  0.02   8:  6.88
   9:  0.11  10:  2.15  11: 95.72  12: 43.42  13: 13.58  14:  1.97  15:  4.55  16: 20.36
  17:  2.61  18: 47.64  19: 39.93  20:  1.34  21:  1.04  22:  0.16  23: 28.21  24: 23.79
  25:245.60  26:117.30  27:  1.35  28:100.39  29:132.98  30: 25.08  31:  5.09  32:223.37
  33:  6.32  34: 75.62  35:  5.27  36: 30.67  37: 51.24  38: 27.93  39:140.66
 Raman intensities (amu)
   1:  0.00   2:  0.00   3:  0.00   4:  0.00   5:  0.00   6:  0.00   7:  0.00   8:  0.00
   9:  0.00  10:  0.00  11:  0.00  12:  0.00  13:  0.00  14:  0.00  15:  0.00  16:  0.00
  17:  0.00  18:  0.00  19:  0.00  20:  0.00  21:  0.00  22:  0.00  23:  0.00  24:  0.00
  25:  0.00  26:  0.00  27:  0.00  28:  0.00  29:  0.00  30:  0.00  31:  0.00  32:  0.00
  33:  0.00  34:  0.00  35:  0.00  36:  0.00  37:  0.00  38:  0.00  39:  0.00
 output can be read by thermo (or use thermo option).
 writing <g98.out> molden fake output.
 recommended (thermochemical) frequency scaling factor: 1.0
           -------------------------------------------------
          |             Thermodynamic Functions             |
           -------------------------------------------------

Molecule has the following symmetry elements: (sigma) 
It seems to be the Cs point group
cs  symmetry found (for desy threshold:  0.10E+00) used in thermo

          ...................................................
          :                      SETUP                      :
          :.................................................:
          :  # frequencies                          33      :
          :  # imaginary freq.                       0      :
          :  linear?                             false      :
          :  only rotor calc.                    false      :
          :  symmetry                               cs      :
          :  rotational number                       1      :
          :  scaling factor                  1.0000000      :
          :  rotor cutoff                   50.0000000 cm⁻¹ :
          :  imag. cutoff                  -20.0000000 cm⁻¹ :
          :.................................................:

    mode    ω/cm⁻¹     T·S(HO)/kcal·mol⁻¹    T·S(FR)/kcal·mol⁻¹   T·S(vib)
   ------------------------------------------------------------------------
       1    146.99    -0.80822 ( 98.68%)    -0.73699 (  1.32%)    -0.80728
       2    226.13    -0.56930 ( 99.76%)    -0.60943 (  0.24%)    -0.56940
       3    252.93    -0.50985 ( 99.85%)    -0.57626 (  0.15%)    -0.50996
   ------------------------------------------------------------------------

   temp. (K)  partition function   enthalpy   heat capacity  entropy
                                   cal/mol     cal/K/mol   cal/K/mol   J/K/mol
 298.15  VIB   11.3                 2539.789     20.471     13.336
         ROT  0.401E+06              888.752      2.981     28.618
         INT  0.453E+07             3428.541     23.452     41.954
         TR   0.141E+28             1481.254      4.968     40.448
         TOT                        4909.7950    28.4197    82.4024   344.7718

       T/K    H(0)-H(T)+PV         H(T)/Eh          T*S/Eh         G(T)/Eh
   ------------------------------------------------------------------------
    298.15    0.782426E-02    0.993117E-01    0.391521E-01    0.601596E-01
   ------------------------------------------------------------------------

         :::::::::::::::::::::::::::::::::::::::::::::::::::::
         ::                  THERMODYNAMIC                  ::
         :::::::::::::::::::::::::::::::::::::::::::::::::::::
         :: total free energy         -23.953249373302 Eh   ::
         ::.................................................::
         :: total energy              -24.013409015316 Eh   ::
         :: zero point energy           0.091487439756 Eh   ::
         :: G(RRHO) w/o ZPVE           -0.031327797742 Eh   ::
         :: G(RRHO) contrib.            0.060159642014 Eh   ::
         :::::::::::::::::::::::::::::::::::::::::::::::::::::

optimized geometry written to: xtbopt.xyz


           -------------------------------------------------
          | TOTAL ENERGY              -24.013409015316 Eh   |
          | TOTAL ENTHALPY            -23.914097319146 Eh   |
          | TOTAL FREE ENERGY         -23.953249373302 Eh   |
          | GRADIENT NORM               0.000896502362 Eh/α |
          | HOMO-LUMO GAP               4.174805923923 eV   |
           -------------------------------------------------

------------------------------------------------------------------------
 * finished run on 2021/11/15 at 09:36:15.593     
------------------------------------------------------------------------
 total:
 * wall-time:     0 d,  0 h,  0 min,  0.621 sec
 *  cpu-time:     0 d,  0 h,  0 min,  0.578 sec
 * ratio c/w:     0.931 speedup
 SCF:
 * wall-time:     0 d,  0 h,  0 min,  0.009 sec
 *  cpu-time:     0 d,  0 h,  0 min,  0.000 sec
 * ratio c/w:     0.000 speedup
 ANC optimizer:
 * wall-time:     0 d,  0 h,  0 min,  0.035 sec
 *  cpu-time:     0 d,  0 h,  0 min,  0.047 sec
 * ratio c/w:     1.356 speedup
 analytical hessian:
 * wall-time:     0 d,  0 h,  0 min,  0.545 sec
 *  cpu-time:     0 d,  0 h,  0 min,  0.516 sec
 * ratio c/w:     0.946 speedup

