 Entering Gaussian System
 *********************************************
 Gaussian 98:
 frequency output generated by the xtb code
 *********************************************
                         Standard orientation:
 --------------------------------------------------------------------
  Center     Atomic     Atomic              Coordinates (Angstroms)
  Number     Number      Type              X           Y           Z
 --------------------------------------------------------------------
    1          6             0       -1.823425   -1.272504   -0.000062
    2          6             0       -2.348777    0.009133   -0.000343
    3          6             0       -1.512560    1.108084   -0.000301
    4          6             0       -0.128818    0.946540   -0.000001
    5          6             0        0.381145   -0.351104    0.000258
    6          6             0       -0.451534   -1.454006    0.000231
    7          1             0       -0.025609   -2.444575    0.000449
    8          8             0        0.654955    2.045038    0.000032
    9          1             0        1.592002    1.785658    0.000310
   10          1             0       -3.416828    0.155192   -0.000571
   11          1             0       -1.901984    2.112797   -0.000497
   12          1             0       -2.474536   -2.130982   -0.000080
   13         17             0        2.120765   -0.578439    0.000657
 --------------------------------------------------------------------
     1 basis functions        1 primitive gaussians
     1 alpha electrons        1 beta electrons
 
 Harmonic frequencies (cm**-1), IR intensities (km*mol⁻¹),
 Raman scattering activities (A**4/amu), Raman depolarization ratios,
 reduced masses (AMU), force constants (mDyne/A) and normal coordinates:
                      1                      2                      3
                        a                      a                      a 
 Frequencies --   146.9926               226.1312               252.9306
 Red. masses --    15.1832                22.1965                11.5351
 Frc consts  --     0.0000                 0.0000                 0.0000
 IR Inten    --     0.0243                 6.8831                 0.1134
 Raman Activ --     0.0000                 0.0000                 0.0000
 Depolar     --     0.0000                 0.0000                 0.0000
 Atom AN      X      Y      Z        X      Y      Z        X      Y      Z
   1   6     0.00  -0.00  -0.19     0.13  -0.01   0.00    -0.00   0.00   0.37
   2   6    -0.00   0.00   0.36     0.01  -0.06  -0.00    -0.00   0.00   0.22
   3   6    -0.00   0.00   0.33    -0.06  -0.01  -0.00     0.00  -0.00  -0.38
   4   6     0.00   0.00  -0.10    -0.02   0.17   0.00     0.00   0.00  -0.30
   5   6     0.00   0.00  -0.20     0.10   0.22   0.00     0.00  -0.00  -0.45
   6   6     0.00  -0.00  -0.41     0.14   0.18   0.00     0.00   0.00  -0.26
   7   1     0.00  -0.00  -0.19     0.07   0.06   0.00     0.00   0.00  -0.09
   8   8     0.00   0.00  -0.43    -0.38   0.47  -0.00    -0.00   0.00   0.37
   9   1     0.00   0.00  -0.16    -0.07   0.21  -0.00    -0.00   0.00   0.15
  10   1    -0.00   0.00   0.21     0.00  -0.04  -0.00    -0.00   0.00   0.17
  11   1    -0.00   0.00   0.18    -0.04  -0.01  -0.00     0.00  -0.00  -0.13
  12   1     0.00  -0.00  -0.10     0.07  -0.02  -0.00    -0.00   0.00   0.26
  13  17    -0.00  -0.00   0.42     0.07  -0.63  -0.00    -0.00  -0.00   0.16
                      4                      5                      6
                        a                      a                      a 
 Frequencies --   341.6873               408.0311               418.9079
 Red. masses --    22.7786                 4.3845                 7.5408
 Frc consts  --     0.0000                 0.0000                 0.0000
 IR Inten    --     2.1494                95.7192                43.4177
 Raman Activ --     0.0000                 0.0000                 0.0000
 Depolar     --     0.0000                 0.0000                 0.0000
 Atom AN      X      Y      Z        X      Y      Z        X      Y      Z
   1   6     0.22  -0.20   0.00    -0.00  -0.00   0.01     0.00   0.00  -0.08
   2   6     0.24  -0.20   0.00     0.00   0.00  -0.17    -0.00  -0.00  -0.20
   3   6     0.03   0.01   0.00     0.00  -0.00   0.14    -0.00   0.00   0.36
   4   6     0.05   0.23   0.00     0.00  -0.00  -0.11    -0.00   0.00  -0.25
   5   6    -0.10   0.18  -0.00     0.00  -0.00  -0.31     0.00   0.00  -0.49
   6   6     0.21  -0.01   0.00    -0.00  -0.00   0.17    -0.00   0.00   0.33
   7   1     0.14   0.03   0.00    -0.00  -0.00   0.16    -0.00   0.00   0.28
   8   8     0.38   0.07   0.00    -0.00   0.00   0.28     0.00  -0.00  -0.05
   9   1     0.07  -0.06   0.00     0.00   0.00  -0.82    -0.00  -0.00   0.49
  10   1     0.07  -0.08   0.00     0.00   0.00  -0.08    -0.00  -0.00  -0.06
  11   1    -0.08  -0.03  -0.00     0.00   0.00   0.14    -0.00   0.00   0.30
  12   1     0.07  -0.06   0.00    -0.00   0.00   0.04     0.00  -0.00   0.02
  13  17    -0.68  -0.02  -0.00    -0.00   0.00   0.06     0.00  -0.00   0.05
                      7                      8                      9
                        a                      a                      a 
 Frequencies --   463.3859               513.1916               530.2504
 Red. masses --    13.9644                10.3499                12.8846
 Frc consts  --     0.0000                 0.0000                 0.0000
 IR Inten    --    13.5850                 1.9730                 4.5517
 Raman Activ --     0.0000                 0.0000                 0.0000
 Depolar     --     0.0000                 0.0000                 0.0000
 Atom AN      X      Y      Z        X      Y      Z        X      Y      Z
   1   6     0.03   0.01   0.00    -0.00   0.00   0.46    -0.42  -0.30  -0.00
   2   6    -0.26  -0.12  -0.00     0.00  -0.00  -0.41    -0.14  -0.21   0.00
   3   6    -0.41   0.05  -0.00    -0.00   0.00   0.19     0.14  -0.35   0.00
   4   6    -0.31   0.19  -0.00    -0.00   0.00   0.49     0.24   0.19   0.00
   5   6    -0.03   0.28  -0.00     0.00  -0.00  -0.23    -0.08   0.06  -0.00
   6   6     0.07   0.26  -0.00     0.00  -0.00  -0.28    -0.33   0.15  -0.00
   7   1     0.05   0.09  -0.00     0.00  -0.00  -0.18    -0.06   0.06  -0.00
   8   8     0.34  -0.28   0.00     0.00  -0.00  -0.21     0.30   0.34   0.00
   9   1     0.03  -0.29  -0.00    -0.00   0.00   0.02     0.07   0.08   0.00
  10   1    -0.09  -0.10  -0.00     0.00  -0.00  -0.30    -0.02   0.06  -0.00
  11   1    -0.18  -0.01  -0.00     0.00  -0.00  -0.02    -0.03  -0.12   0.00
  12   1     0.07  -0.05   0.00    -0.00   0.00   0.23    -0.09  -0.11  -0.00
  13  17     0.32  -0.14   0.00    -0.00   0.00   0.05     0.16   0.05   0.00
                     10                     11                     12
                        a                      a                      a 
 Frequencies --   657.9946               659.1062               782.3243
 Red. masses --    13.5778                11.4760                 3.3328
 Frc consts  --     0.0000                 0.0000                 0.0000
 IR Inten    --    20.3552                 2.6096                47.6404
 Raman Activ --     0.0000                 0.0000                 0.0000
 Depolar     --     0.0000                 0.0000                 0.0000
 Atom AN      X      Y      Z        X      Y      Z        X      Y      Z
   1   6     0.07   0.22  -0.00     0.00  -0.00  -0.28    -0.00   0.00   0.20
   2   6    -0.35  -0.00  -0.00    -0.00   0.00   0.30    -0.00   0.00   0.17
   3   6     0.14  -0.40   0.00     0.00  -0.00  -0.30    -0.00   0.00   0.18
   4   6     0.14  -0.22   0.00    -0.00   0.00   0.60     0.00  -0.00  -0.22
   5   6     0.42   0.07   0.00     0.00  -0.00  -0.49     0.00  -0.00  -0.12
   6   6     0.09   0.44  -0.00    -0.00   0.00   0.30    -0.00   0.00   0.19
   7   1    -0.02   0.10  -0.00    -0.00   0.00   0.07     0.00  -0.00  -0.40
   8   8    -0.04  -0.18   0.00     0.00  -0.00  -0.09    -0.00  -0.00   0.06
   9   1     0.00   0.00   0.00     0.00   0.00  -0.01    -0.00  -0.00   0.02
  10   1    -0.09   0.04  -0.00    -0.00   0.00   0.04     0.00  -0.00  -0.46
  11   1     0.14  -0.07   0.00     0.00  -0.00  -0.18     0.00  -0.00  -0.35
  12   1     0.14  -0.03   0.00     0.00  -0.00  -0.11     0.00  -0.00  -0.55
  13  17    -0.30   0.04  -0.00    -0.00   0.00   0.02    -0.00   0.00   0.02
                     13                     14                     15
                        a                      a                      a 
 Frequencies --   821.2849               871.9895               904.4628
 Red. masses --    12.0632                 3.3848                 3.8187
 Frc consts  --     0.0000                 0.0000                 0.0000
 IR Inten    --    39.9330                 1.3355                 1.0415
 Raman Activ --     0.0000                 0.0000                 0.0000
 Depolar     --     0.0000                 0.0000                 0.0000
 Atom AN      X      Y      Z        X      Y      Z        X      Y      Z
   1   6    -0.19  -0.27  -0.00     0.00   0.00  -0.18    -0.00   0.00   0.28
   2   6     0.49  -0.03   0.00    -0.00   0.00   0.15    -0.00   0.00   0.14
   3   6     0.19   0.09   0.00    -0.00   0.00   0.32     0.00  -0.00  -0.20
   4   6    -0.03  -0.01   0.00     0.00   0.00  -0.06    -0.00   0.00   0.08
   5   6    -0.02   0.23  -0.00     0.00  -0.00   0.01    -0.00   0.00   0.02
   6   6    -0.16   0.43  -0.00     0.00  -0.00  -0.23     0.00  -0.00  -0.34
   7   1     0.07   0.17   0.00    -0.00   0.00   0.49    -0.00   0.00   0.60
   8   8    -0.31  -0.40  -0.00     0.00   0.00   0.02     0.00  -0.00  -0.01
   9   1    -0.07  -0.10  -0.00    -0.00  -0.00   0.01     0.00   0.00   0.00
  10   1     0.15   0.10   0.00     0.00  -0.00  -0.22     0.00  -0.00  -0.21
  11   1     0.03   0.01  -0.00     0.00  -0.00  -0.65    -0.00   0.00   0.27
  12   1    -0.06  -0.06   0.00    -0.00   0.00   0.28     0.00  -0.00  -0.51
  13  17     0.03  -0.01   0.00    -0.00  -0.00  -0.00    -0.00  -0.00  -0.01
                     16                     17                     18
                        a                      a                      a 
 Frequencies --   919.3034              1010.8469              1077.3509
 Red. masses --     3.2628                11.4078                 5.5373
 Frc consts  --     0.0000                 0.0000                 0.0000
 IR Inten    --     0.1644                28.2059                23.7860
 Raman Activ --     0.0000                 0.0000                 0.0000
 Depolar     --     0.0000                 0.0000                 0.0000
 Atom AN      X      Y      Z        X      Y      Z        X      Y      Z
   1   6    -0.00   0.00   0.20     0.18   0.26   0.00     0.11   0.35  -0.00
   2   6     0.00  -0.00  -0.36    -0.08   0.07  -0.00     0.35  -0.13   0.00
   3   6    -0.00   0.00   0.17     0.28  -0.42   0.00    -0.01  -0.25   0.00
   4   6    -0.00   0.00   0.05     0.06   0.19  -0.00    -0.08   0.08  -0.00
   5   6     0.00  -0.00  -0.07    -0.61   0.23  -0.00     0.10  -0.10   0.00
   6   6    -0.00   0.00  -0.01     0.09  -0.13   0.00    -0.16   0.10  -0.00
   7   1    -0.00   0.00   0.11     0.14   0.02  -0.00    -0.44  -0.14  -0.00
   8   8    -0.00  -0.00   0.01    -0.14  -0.14  -0.00    -0.01   0.07  -0.00
   9   1     0.00  -0.00  -0.01    -0.06  -0.14  -0.00    -0.05  -0.18  -0.00
  10   1    -0.00   0.00   0.69     0.00   0.14  -0.00     0.10  -0.11   0.00
  11   1     0.00  -0.00  -0.38     0.11  -0.10   0.00    -0.45  -0.25  -0.00
  12   1     0.00  -0.00  -0.40     0.02   0.10  -0.00    -0.10   0.21  -0.00
  13  17     0.00  -0.00  -0.00     0.11  -0.02   0.00    -0.01   0.00  -0.00
                     19                     20                     21
                        a                      a                      a 
 Frequencies --  1116.7045              1149.7768              1170.2675
 Red. masses --     4.8932                 3.2697                 1.5390
 Frc consts  --     0.0000                 0.0000                 0.0000
 IR Inten    --   245.5969               117.3043                 1.3528
 Raman Activ --     0.0000                 0.0000                 0.0000
 Depolar     --     0.0000                 0.0000                 0.0000
 Atom AN      X      Y      Z        X      Y      Z        X      Y      Z
   1   6     0.17   0.11   0.00    -0.13  -0.03  -0.00     0.07  -0.07   0.00
   2   6     0.03  -0.05   0.00    -0.05   0.14  -0.00    -0.04   0.07  -0.00
   3   6    -0.11   0.05  -0.00    -0.10  -0.08  -0.00     0.05   0.09  -0.00
   4   6     0.22  -0.09   0.00     0.05   0.05  -0.00    -0.01   0.07  -0.00
   5   6    -0.29   0.03  -0.00     0.18   0.07   0.00    -0.08  -0.09  -0.00
   6   6    -0.18   0.15  -0.00     0.19  -0.16   0.00    -0.00  -0.01  -0.00
   7   1    -0.08   0.03  -0.00     0.30   0.05   0.00    -0.30  -0.13  -0.00
   8   8     0.05  -0.26   0.00     0.00  -0.18   0.00    -0.03  -0.02  -0.00
   9   1     0.21   0.68   0.00     0.10   0.32   0.00    -0.01  -0.00  -0.00
  10   1    -0.04  -0.34   0.00     0.04   0.46  -0.00     0.05   0.50  -0.00
  11   1    -0.13  -0.03  -0.00    -0.50  -0.21  -0.00    -0.21  -0.06  -0.00
  12   1     0.15  -0.04   0.00    -0.27   0.16  -0.00     0.59  -0.45   0.00
  13  17     0.04   0.00   0.00    -0.03  -0.00  -0.00     0.01  -0.00   0.00
                     22                     23                     24
                        a                      a                      a 
 Frequencies --  1242.9787              1266.5039              1327.4108
 Red. masses --     5.1622                 8.5019                11.4365
 Frc consts  --     0.0000                 0.0000                 0.0000
 IR Inten    --   100.3862               132.9793                25.0807
 Raman Activ --     0.0000                 0.0000                 0.0000
 Depolar     --     0.0000                 0.0000                 0.0000
 Atom AN      X      Y      Z        X      Y      Z        X      Y      Z
   1   6     0.03  -0.17   0.00     0.16   0.05   0.00    -0.32   0.24  -0.00
   2   6    -0.06  -0.08  -0.00     0.23  -0.09   0.00    -0.04  -0.39   0.00
   3   6    -0.04  -0.04   0.00    -0.23  -0.20  -0.00     0.34   0.13   0.00
   4   6    -0.01   0.28  -0.00    -0.41  -0.37  -0.00    -0.34   0.27  -0.00
   5   6     0.15   0.35  -0.00    -0.15  -0.02  -0.00    -0.07  -0.37   0.00
   6   6     0.13  -0.15   0.00    -0.06   0.17  -0.00     0.37   0.15   0.00
   7   1    -0.56  -0.30  -0.00    -0.00   0.06   0.00     0.02   0.01   0.00
   8   8    -0.04  -0.22   0.00     0.24   0.20   0.00     0.02  -0.08   0.00
   9   1     0.06   0.20   0.00     0.09   0.21   0.00     0.06   0.22   0.00
  10   1     0.00   0.13  -0.00     0.13   0.42  -0.00     0.00  -0.00  -0.00
  11   1     0.31   0.12   0.00     0.30   0.08   0.00     0.05   0.02   0.00
  12   1    -0.22   0.12  -0.00    -0.06   0.10  -0.00     0.00  -0.00   0.00
  13  17    -0.02  -0.01  -0.00     0.03  -0.00   0.00     0.01  -0.01  -0.00
                     25                     26                     27
                        a                      a                      a 
 Frequencies --  1428.1172              1460.3850              1571.3390
 Red. masses --     9.2550                 9.9814                11.4820
 Frc consts  --     0.0000                 0.0000                 0.0000
 IR Inten    --     5.0894               223.3745                 6.3163
 Raman Activ --     0.0000                 0.0000                 0.0000
 Depolar     --     0.0000                 0.0000                 0.0000
 Atom AN      X      Y      Z        X      Y      Z        X      Y      Z
   1   6    -0.29   0.18  -0.00    -0.16  -0.21  -0.00    -0.46   0.33  -0.00
   2   6     0.25   0.27   0.00    -0.07   0.29  -0.00     0.19  -0.24   0.00
   3   6     0.02  -0.29   0.00     0.31   0.03   0.00    -0.37   0.02  -0.00
   4   6    -0.37   0.12  -0.00    -0.22  -0.47   0.00     0.42  -0.24   0.00
   5   6     0.27   0.23   0.00    -0.20   0.25  -0.00    -0.11   0.21  -0.00
   6   6    -0.13  -0.33   0.00     0.38   0.09   0.00     0.33  -0.07   0.00
   7   1     0.16  -0.02   0.00    -0.24  -0.12  -0.00    -0.03  -0.07   0.00
   8   8     0.07  -0.05   0.00     0.10   0.14   0.00    -0.03   0.04  -0.00
   9   1     0.06   0.16  -0.00     0.01   0.01   0.00    -0.03  -0.10   0.00
  10   1     0.03  -0.24   0.00    -0.06  -0.21   0.00     0.07   0.04   0.00
  11   1     0.11  -0.05   0.00    -0.23  -0.12  -0.00     0.06   0.06   0.00
  12   1     0.28  -0.22   0.00    -0.08  -0.04  -0.00     0.11  -0.08   0.00
  13  17    -0.01  -0.01   0.00     0.01  -0.01  -0.00    -0.01  -0.00  -0.00
                     28                     29                     30
                        a                      a                      a 
 Frequencies --  1591.9839              3100.2155              3103.5410
 Red. masses --    11.6405                 1.7746                 1.8167
 Frc consts  --     0.0000                 0.0000                 0.0000
 IR Inten    --    75.6212                 5.2717                30.6728
 Raman Activ --     0.0000                 0.0000                 0.0000
 Depolar     --     0.0000                 0.0000                 0.0000
 Atom AN      X      Y      Z        X      Y      Z        X      Y      Z
   1   6    -0.08  -0.20   0.00     0.09   0.12   0.00    -0.02  -0.03  -0.00
   2   6     0.16   0.48  -0.00    -0.10   0.02  -0.00     0.21  -0.03   0.00
   3   6    -0.35  -0.30  -0.00     0.01  -0.02   0.00    -0.02   0.06  -0.00
   4   6     0.10   0.26  -0.00    -0.00   0.00  -0.00    -0.00   0.00  -0.00
   5   6    -0.12  -0.43   0.00     0.01  -0.00   0.00     0.01  -0.00   0.00
   6   6     0.32   0.26   0.00     0.08  -0.18   0.00     0.06  -0.14   0.00
   7   1    -0.08  -0.01  -0.00    -0.28   0.65  -0.00    -0.20   0.48  -0.00
   8   8    -0.02  -0.03  -0.00     0.00  -0.00   0.00     0.00  -0.00   0.00
   9   1     0.00   0.00   0.00    -0.00   0.00  -0.00    -0.00   0.00  -0.00
  10   1     0.01  -0.11   0.00     0.36  -0.05   0.00    -0.75   0.10  -0.00
  11   1     0.11  -0.00   0.00    -0.03   0.08  -0.00     0.10  -0.24   0.00
  12   1    -0.04  -0.04  -0.00    -0.33  -0.43  -0.00     0.08   0.11   0.00
  13  17    -0.00   0.00  -0.00    -0.00   0.00  -0.00    -0.00   0.00  -0.00
                     31                     32                     33
                        a                      a                      a 
 Frequencies --  3114.3228              3121.2982              3387.3272
 Red. masses --     1.8697                 1.9014                 1.8617
 Frc consts  --     0.0000                 0.0000                 0.0000
 IR Inten    --    51.2374                27.9285               140.6590
 Raman Activ --     0.0000                 0.0000                 0.0000
 Depolar     --     0.0000                 0.0000                 0.0000
 Atom AN      X      Y      Z        X      Y      Z        X      Y      Z
   1   6     0.12   0.16   0.00     0.07   0.09   0.00     0.00   0.00   0.00
   2   6     0.06  -0.01   0.00     0.13  -0.02   0.00    -0.00   0.00  -0.00
   3   6    -0.06   0.14  -0.00     0.08  -0.20   0.00     0.00   0.00   0.00
   4   6     0.00   0.00   0.00    -0.00  -0.01  -0.00    -0.01  -0.01  -0.00
   5   6    -0.00  -0.00  -0.00    -0.00   0.00  -0.00     0.00   0.00  -0.00
   6   6    -0.04   0.10  -0.00    -0.02   0.04  -0.00    -0.00  -0.00   0.00
   7   1     0.14  -0.34   0.00     0.06  -0.14   0.00    -0.00   0.00  -0.00
   8   8     0.00  -0.00   0.00    -0.00   0.00  -0.00    -0.23   0.07  -0.00
   9   1    -0.00   0.00  -0.00     0.01  -0.00   0.00     0.94  -0.24   0.00
  10   1    -0.19   0.03  -0.00    -0.43   0.06  -0.00     0.00  -0.00   0.00
  11   1     0.20  -0.50   0.00    -0.27   0.70  -0.00     0.00  -0.01   0.00
  12   1    -0.41  -0.54  -0.00    -0.23  -0.30  -0.00    -0.00  -0.00   0.00
  13  17     0.00   0.00   0.00     0.00  -0.00   0.00     0.00  -0.00   0.00
