13
 energy: -24.013409017605 gnorm: 0.000896600065 xtb: 6.4.1 (afa7bdf)
C        -1.82342487906326   -1.27250356792303   -0.00006240336506
C        -2.34877687852627    0.00913311643610   -0.00034268715312
C        -1.51255963113010    1.10808361291105   -0.00030077068215
C        -0.12881840238106    0.94653992098436   -0.00000080584009
C         0.38114507645795   -0.35110408557453    0.00025768711099
C        -0.45153434352338   -1.45400594601173    0.00023106399531
H        -0.02560863616450   -2.44457472050910    0.00044856328514
O         0.65495528974304    2.04503840459513    0.00003174060509
H         1.59200185494945    1.78565803348137    0.00031022307530
H        -3.41682766299231    0.15519236463927   -0.00057054450961
H        -1.90198400179852    2.11279694934897   -0.00049654491588
H        -2.47453558723331   -2.13098207498653   -0.00008000022556
Cl        2.12076543960795   -0.57843912829964    0.00065718542659
