      -----------------------------------------------------------      
     |                   =====================                   |     
     |                           x T B                           |     
     |                   =====================                   |     
     |                         S. Grimme                         |     
     |          Mulliken Center for Theoretical Chemistry        |     
     |                    University of Bonn                     |     
      -----------------------------------------------------------      

   * xtb version 6.4.1 (afa7bdf) compiled by 'ehlert@majestix' on 2021-06-10

   xtb is free software: you can redistribute it and/or modify it under
   the terms of the GNU Lesser General Public License as published by
   the Free Software Foundation, either version 3 of the License, or
   (at your option) any later version.
   
   xtb is distributed in the hope that it will be useful,
   but WITHOUT ANY WARRANTY; without even the implied warranty of
   MERCHANTABILITY or FITNESS FOR A PARTICULAR PURPOSE.  See the
   GNU Lesser General Public License for more details.
   
   Cite this work as:
   * C. Bannwarth, E. Caldeweyher, S. Ehlert, A. Hansen, P. Pracht,
     J. Seibert, S. Spicher, S. Grimme, WIREs Comput. Mol. Sci., 2020, 11,
     e01493. DOI: 10.1002/wcms.1493
   
   for GFN2-xTB:
   * C. Bannwarth, S. Ehlert and S. Grimme., J. Chem. Theory Comput., 2019,
     15, 1652-1671. DOI: 10.1021/acs.jctc.8b01176
   for GFN1-xTB:
   * S. Grimme, C. Bannwarth, P. Shushkov, J. Chem. Theory Comput., 2017,
     13, 1989-2009. DOI: 10.1021/acs.jctc.7b00118
   for GFN0-xTB:
   * P. Pracht, E. Caldeweyher, S. Ehlert, S. Grimme, ChemRxiv, 2019, preprint.
     DOI: 10.26434/chemrxiv.8326202.v1
   for GFN-FF:
   * S. Spicher and S. Grimme, Angew. Chem. Int. Ed., 2020, 59, 15665-15673.
     DOI: 10.1002/anie.202004239
   
   for DFT-D4:
   * E. Caldeweyher, C. Bannwarth and S. Grimme, J. Chem. Phys., 2017,
     147, 034112. DOI: 10.1063/1.4993215
   * E. Caldeweyher, S. Ehlert, A. Hansen, H. Neugebauer, S. Spicher,
     C. Bannwarth and S. Grimme, J. Chem. Phys., 2019, 150, 154122.
     DOI: 10.1063/1.5090222
   * E. Caldeweyher, J.-M. Mewes, S. Ehlert and S. Grimme, Phys. Chem. Chem. Phys.
     2020, 22, 8499-8512. DOI: 10.1039/D0CP00502A
   
   for sTDA-xTB:
   * S. Grimme and C. Bannwarth, J. Chem. Phys., 2016, 145, 054103.
     DOI: 10.1063/1.4959605
   
   in the mass-spec context:
   * V. Asgeirsson, C. Bauer and S. Grimme, Chem. Sci., 2017, 8, 4879.
     DOI: 10.1039/c7sc00601b
   * J. Koopman and S. Grimme, ACS Omega 2019, 4, 12, 15120-15133.
     DOI: 10.1021/acsomega.9b02011
   
   for metadynamics refer to:
   * S. Grimme, J. Chem. Theory Comput., 2019, 155, 2847-2862
     DOI: 10.1021/acs.jctc.9b00143
   
   for SPH calculations refer to:
   * S. Spicher and S. Grimme, J. Chem. Theory Comput., 2021, 17, 1701-1714
     DOI: 10.1021/acs.jctc.0c01306
   
   with help from (in alphabetical order)
   P. Atkinson, C. Bannwarth, F. Bohle, G. Brandenburg, E. Caldeweyher
   M. Checinski, S. Dohm, S. Ehlert, S. Ehrlich, I. Gerasimov, J. Koopman
   C. Lavigne, S. Lehtola, F. März, M. Müller, F. Musil, H. Neugebauer
   J. Pisarek, C. Plett, P. Pracht, J. Seibert, P. Shushkov, S. Spicher
   M. Stahn, M. Steiner, T. Strunk, J. Stückrath, T. Rose, and J. Unsleber
   
 * started run on 2021/11/15 at 09:23:09.785     

           -------------------------------------------------
          |                Calculation Setup                |
           -------------------------------------------------

          program call               : xtb 29_pyrrolidine.xyz --gfn2 --chrg 0 --uhf 0 --alpb water -P 1
          coordinate file            : 29_pyrrolidine.xyz
          omp threads                :                     1
          number of atoms            :                    14
          number of electrons        :                    30
          charge                     :                     0
          spin                       :                   0.0
          first test random number   :      0.93418393908331

   ID    Z sym.   atoms
    1    6 C      1-4
    2    1 H      5-12, 14
    3    7 N      13

           -------------------------------------------------
          |                 G F N 2 - x T B                 |
           -------------------------------------------------

        Reference                      10.1021/acs.jctc.8b01176
      * Hamiltonian:
        H0-scaling (s, p, d)           1.850000    2.230000    2.230000
        zeta-weighting                 0.500000
      * Dispersion:
        s8                             2.700000
        a1                             0.520000
        a2                             5.000000
        s9                             5.000000
      * Repulsion:
        kExp                           1.500000    1.000000
        rExp                           1.000000
      * Coulomb:
        alpha                          2.000000
        third order                    shell-resolved
        anisotropic                    true
        a3                             3.000000
        a5                             4.000000
        cn-shift                       1.200000
        cn-exp                         4.000000
        max-rad                        5.000000

      * Solvation model:               ALPB
        Solvent                        water
        Parameter file                 internal GFN2-xTB/ALPB
        Dielectric constant                8.0200E+01
        Reference state                gsolv [1 M gas/solution]
        Free energy shift                  1.0808E-03 Eh       6.7819E-01 kcal/mol
        Temperature                        2.9815E+02 K
        Density                            1.0000E+00 kg/L
        Solvent mass                       1.8000E+01 g/mol
        Interaction kernel             P16
        Born radius scaling (c1)           1.4744E+00
        Born radii integrator          GBOBC
        Born offset                        0.0000E+00 a0       0.0000E+00 AA
        H-bond correction              true
        Ion screening                  false
        Surface tension                    1.0000E-05 Eh       1.5569E+01 dyn/cm
        Grid points                               230 per atom
q/qsh data taken from xtbrestart
CAMM data taken from xtbrestart

          ...................................................
          :                      SETUP                      :
          :.................................................:
          :  # basis functions                  29          :
          :  # atomic orbitals                  29          :
          :  # shells                           19          :
          :  # electrons                        30          :
          :  max. iterations                   250          :
          :  Hamiltonian                  GFN2-xTB          :
          :  restarted?                       true          :
          :  GBSA solvation                   true          :
          :  PC potential                    false          :
          :  electronic temp.          300.0000000     K    :
          :  accuracy                    1.0000000          :
          :  -> integral cutoff          0.2500000E+02      :
          :  -> integral neglect         0.1000000E-07      :
          :  -> SCF convergence          0.1000000E-05 Eh   :
          :  -> wf. convergence          0.1000000E-03 e    :
          :  Broyden damping             0.4000000          :
          ...................................................

 iter      E             dE          RMSdq      gap      omega  full diag
   1    -16.2752209 -0.162752E+02  0.176E-05   10.91       0.0  T
   2    -16.2752209 -0.294875E-12  0.104E-05   10.91    2561.0  T
   3    -16.2752209 -0.639488E-13  0.323E-06   10.91    8280.0  T

   *** convergence criteria satisfied after 3 iterations ***

         #    Occupation            Energy/Eh            Energy/eV
      -------------------------------------------------------------
         1        2.0000           -0.6434952             -17.5104
       ...           ...                  ...                  ...
         9        2.0000           -0.4947620             -13.4632
        10        2.0000           -0.4629059             -12.5963
        11        2.0000           -0.4509372             -12.2706
        12        2.0000           -0.4439708             -12.0811
        13        2.0000           -0.4349669             -11.8361
        14        2.0000           -0.4222068             -11.4888
        15        2.0000           -0.3666567              -9.9772 (HOMO)
        16                          0.0343573               0.9349 (LUMO)
        17                          0.0404525               1.1008
        18                          0.0834755               2.2715
        19                          0.0994196               2.7053
        20                          0.1044035               2.8410
       ...                                ...                  ...
        29                          0.3315633               9.0223
      -------------------------------------------------------------
                  HL-Gap            0.4010140 Eh           10.9121 eV
             Fermi-level           -0.1661497 Eh           -4.5212 eV

 SCC (total)                   0 d,  0 h,  0 min,  0.004 sec
 SCC setup                      ...        0 min,  0.000 sec (  8.741%)
 Dispersion                     ...        0 min,  0.000 sec (  1.526%)
 classical contributions        ...        0 min,  0.000 sec (  0.570%)
 integral evaluation            ...        0 min,  0.001 sec ( 17.097%)
 iterations                     ...        0 min,  0.002 sec ( 34.385%)
 molecular gradient             ...        0 min,  0.001 sec ( 34.135%)
 printout                       ...        0 min,  0.000 sec (  3.073%)

         :::::::::::::::::::::::::::::::::::::::::::::::::::::
         ::                     SUMMARY                     ::
         :::::::::::::::::::::::::::::::::::::::::::::::::::::
         :: total energy             -16.073240852274 Eh    ::
         :: total w/o Gsasa/hb       -16.071296122156 Eh    ::
         :: gradient norm              0.022300778381 Eh/a0 ::
         :: HOMO-LUMO gap             10.912146951035 eV    ::
         ::.................................................::
         :: SCC energy               -16.275220904060 Eh    ::
         :: -> isotropic ES            0.011387028623 Eh    ::
         :: -> anisotropic ES          0.004919055595 Eh    ::
         :: -> anisotropic XC          0.013099177430 Eh    ::
         :: -> dispersion             -0.007472384573 Eh    ::
         :: -> Gsolv                  -0.003025335820 Eh    ::
         ::    -> Gelec               -0.001080605702 Eh    ::
         ::    -> Gsasa               -0.001886420800 Eh    ::
         ::    -> Ghb                 -0.001139069016 Eh    ::
         ::    -> Gshift               0.001080759698 Eh    ::
         :: repulsion energy           0.201972441989 Eh    ::
         :: add. restraining           0.000000000000 Eh    ::
         :: total charge              -0.000000000000 e     ::
         :::::::::::::::::::::::::::::::::::::::::::::::::::::

           -------------------------------------------------
          |                Property Printout                |
           -------------------------------------------------

    * Orbital Energies and Occupations

         #    Occupation            Energy/Eh            Energy/eV
      -------------------------------------------------------------
         1        2.0000           -0.6434952             -17.5104
       ...           ...                  ...                  ...
         3        2.0000           -0.6032753             -16.4160
         4        2.0000           -0.5614376             -15.2775
         5        2.0000           -0.5613092             -15.2740
         6        2.0000           -0.5352582             -14.5651
         7        2.0000           -0.5119201             -13.9301
         8        2.0000           -0.4948580             -13.4658
         9        2.0000           -0.4947620             -13.4632
        10        2.0000           -0.4629059             -12.5963
        11        2.0000           -0.4509372             -12.2706
        12        2.0000           -0.4439708             -12.0811
        13        2.0000           -0.4349669             -11.8361
        14        2.0000           -0.4222068             -11.4888
        15        2.0000           -0.3666567              -9.9772 (HOMO)
        16                          0.0343573               0.9349 (LUMO)
        17                          0.0404525               1.1008
        18                          0.0834755               2.2715
        19                          0.0994196               2.7053
        20                          0.1044035               2.8410
        21                          0.1396343               3.7996
        22                          0.1560505               4.2463
        23                          0.1611471               4.3850
        24                          0.1753082               4.7704
        25                          0.1982174               5.3938
        26                          0.2126701               5.7870
       ...                                ...                  ...
        29                          0.3315633               9.0223
      -------------------------------------------------------------
                  HL-Gap            0.4010140 Eh           10.9121 eV
             Fermi-level           -0.1661497 Eh           -4.5212 eV

     #   Z          covCN         q      C6AA      α(0)
     1   6 C        3.806    -0.067    21.783     6.644
     2   6 C        3.806    -0.067    21.783     6.644
     3   6 C        3.785     0.006    20.490     6.448
     4   6 C        3.785     0.006    20.490     6.448
     5   1 H        0.924     0.030     2.586     2.515
     6   1 H        0.924     0.034     2.535     2.490
     7   1 H        0.924     0.030     2.586     2.515
     8   1 H        0.924     0.034     2.535     2.490
     9   1 H        0.924     0.035     2.517     2.481
    10   1 H        0.924     0.032     2.564     2.504
    11   1 H        0.924     0.035     2.517     2.481
    12   1 H        0.924     0.032     2.564     2.504
    13   7 N        2.679    -0.299    27.694     7.816
    14   1 H        0.860     0.160     1.334     1.809

 Mol. C6AA /au·bohr⁶  :       1407.961872
 Mol. C8AA /au·bohr⁸  :      29517.733461
 Mol. α(0) /au        :         55.788122


Wiberg/Mayer (AO) data.
largest (>0.10) Wiberg bond orders for each atom

 ---------------------------------------------------------------------------
     #   Z sym  total        # sym  WBO       # sym  WBO       # sym  WBO
 ---------------------------------------------------------------------------
     1   6 C    3.996 --     2 C    1.003     4 C    0.993     5 H    0.984
                             6 H    0.983
     2   6 C    3.996 --     1 C    1.003     3 C    0.993     7 H    0.984
                             8 H    0.983
     3   6 C    3.986 --    13 N    1.011     2 C    0.993    10 H    0.980
                             9 H    0.978
     4   6 C    3.986 --    13 N    1.011     1 C    0.993    12 H    0.980
                            11 H    0.978
     5   1 H    0.999 --     1 C    0.984
     6   1 H    0.999 --     1 C    0.983
     7   1 H    0.999 --     2 C    0.984
     8   1 H    0.999 --     2 C    0.983
     9   1 H    0.999 --     3 C    0.978
    10   1 H    0.999 --     3 C    0.980
    11   1 H    0.999 --     4 C    0.978
    12   1 H    0.999 --     4 C    0.980
    13   7 N    3.043 --     3 C    1.011     4 C    1.011    14 H    0.954
    14   1 H    0.974 --    13 N    0.954
 ---------------------------------------------------------------------------

Topologies differ in total number of bonds
Writing topology from bond orders to xtbtopo.mol

molecular dipole:
                 x           y           z       tot (Debye)
 q only:        0.000       0.258      -0.134
   full:        0.000       0.569      -0.312       1.650
molecular quadrupole (traceless):
                xx          xy          yy          xz          yz          zz
 q only:        0.999      -0.001      -1.680       0.000       0.737       0.681
  q+dip:        0.832      -0.001      -4.247       0.000       1.276       3.415
   full:        1.369      -0.001      -4.052       0.000       1.376       2.683


           -------------------------------------------------
          | TOTAL ENERGY              -16.073240852274 Eh   |
          | GRADIENT NORM               0.022300778381 Eh/α |
          | HOMO-LUMO GAP              10.912146951035 eV   |
           -------------------------------------------------

------------------------------------------------------------------------
 * finished run on 2021/11/15 at 09:23:09.814     
------------------------------------------------------------------------
 total:
 * wall-time:     0 d,  0 h,  0 min,  0.029 sec
 *  cpu-time:     0 d,  0 h,  0 min,  0.031 sec
 * ratio c/w:     1.069 speedup
 SCF:
 * wall-time:     0 d,  0 h,  0 min,  0.005 sec
 *  cpu-time:     0 d,  0 h,  0 min,  0.000 sec
 * ratio c/w:     0.000 speedup

