      -----------------------------------------------------------      
     |                   =====================                   |     
     |                           x T B                           |     
     |                   =====================                   |     
     |                         S. Grimme                         |     
     |          Mulliken Center for Theoretical Chemistry        |     
     |                    University of Bonn                     |     
      -----------------------------------------------------------      

   * xtb version 6.4.1 (afa7bdf) compiled by 'ehlert@majestix' on 2021-06-10

   xtb is free software: you can redistribute it and/or modify it under
   the terms of the GNU Lesser General Public License as published by
   the Free Software Foundation, either version 3 of the License, or
   (at your option) any later version.
   
   xtb is distributed in the hope that it will be useful,
   but WITHOUT ANY WARRANTY; without even the implied warranty of
   MERCHANTABILITY or FITNESS FOR A PARTICULAR PURPOSE.  See the
   GNU Lesser General Public License for more details.
   
   Cite this work as:
   * C. Bannwarth, E. Caldeweyher, S. Ehlert, A. Hansen, P. Pracht,
     J. Seibert, S. Spicher, S. Grimme, WIREs Comput. Mol. Sci., 2020, 11,
     e01493. DOI: 10.1002/wcms.1493
   
   for GFN2-xTB:
   * C. Bannwarth, S. Ehlert and S. Grimme., J. Chem. Theory Comput., 2019,
     15, 1652-1671. DOI: 10.1021/acs.jctc.8b01176
   for GFN1-xTB:
   * S. Grimme, C. Bannwarth, P. Shushkov, J. Chem. Theory Comput., 2017,
     13, 1989-2009. DOI: 10.1021/acs.jctc.7b00118
   for GFN0-xTB:
   * P. Pracht, E. Caldeweyher, S. Ehlert, S. Grimme, ChemRxiv, 2019, preprint.
     DOI: 10.26434/chemrxiv.8326202.v1
   for GFN-FF:
   * S. Spicher and S. Grimme, Angew. Chem. Int. Ed., 2020, 59, 15665-15673.
     DOI: 10.1002/anie.202004239
   
   for DFT-D4:
   * E. Caldeweyher, C. Bannwarth and S. Grimme, J. Chem. Phys., 2017,
     147, 034112. DOI: 10.1063/1.4993215
   * E. Caldeweyher, S. Ehlert, A. Hansen, H. Neugebauer, S. Spicher,
     C. Bannwarth and S. Grimme, J. Chem. Phys., 2019, 150, 154122.
     DOI: 10.1063/1.5090222
   * E. Caldeweyher, J.-M. Mewes, S. Ehlert and S. Grimme, Phys. Chem. Chem. Phys.
     2020, 22, 8499-8512. DOI: 10.1039/D0CP00502A
   
   for sTDA-xTB:
   * S. Grimme and C. Bannwarth, J. Chem. Phys., 2016, 145, 054103.
     DOI: 10.1063/1.4959605
   
   in the mass-spec context:
   * V. Asgeirsson, C. Bauer and S. Grimme, Chem. Sci., 2017, 8, 4879.
     DOI: 10.1039/c7sc00601b
   * J. Koopman and S. Grimme, ACS Omega 2019, 4, 12, 15120-15133.
     DOI: 10.1021/acsomega.9b02011
   
   for metadynamics refer to:
   * S. Grimme, J. Chem. Theory Comput., 2019, 155, 2847-2862
     DOI: 10.1021/acs.jctc.9b00143
   
   for SPH calculations refer to:
   * S. Spicher and S. Grimme, J. Chem. Theory Comput., 2021, 17, 1701-1714
     DOI: 10.1021/acs.jctc.0c01306
   
   with help from (in alphabetical order)
   P. Atkinson, C. Bannwarth, F. Bohle, G. Brandenburg, E. Caldeweyher
   M. Checinski, S. Dohm, S. Ehlert, S. Ehrlich, I. Gerasimov, J. Koopman
   C. Lavigne, S. Lehtola, F. März, M. Müller, F. Musil, H. Neugebauer
   J. Pisarek, C. Plett, P. Pracht, J. Seibert, P. Shushkov, S. Spicher
   M. Stahn, M. Steiner, T. Strunk, J. Stückrath, T. Rose, and J. Unsleber
   
 * started run on 2021/11/15 at 09:36:10.991     

           -------------------------------------------------
          |                Calculation Setup                |
           -------------------------------------------------

          program call               : xtb 08_4-hydroxy-acetophenone.xyz --gfn2 --chrg 0 --uhf 0 --alpb water --ohess -P 1
          coordinate file            : 08_4-hydroxy-acetophenone.xyz
          omp threads                :                     1
          number of atoms            :                    18
          number of electrons        :                    52
          charge                     :                     0
          spin                       :                   0.0
          first test random number   :      0.67862484822195

   ID    Z sym.   atoms
    1    6 C      1-6, 12, 14
    2    8 O      7, 13
    3    1 H      8-11, 15-18

           -------------------------------------------------
          |                 G F N 2 - x T B                 |
           -------------------------------------------------

        Reference                      10.1021/acs.jctc.8b01176
      * Hamiltonian:
        H0-scaling (s, p, d)           1.850000    2.230000    2.230000
        zeta-weighting                 0.500000
      * Dispersion:
        s8                             2.700000
        a1                             0.520000
        a2                             5.000000
        s9                             5.000000
      * Repulsion:
        kExp                           1.500000    1.000000
        rExp                           1.000000
      * Coulomb:
        alpha                          2.000000
        third order                    shell-resolved
        anisotropic                    true
        a3                             3.000000
        a5                             4.000000
        cn-shift                       1.200000
        cn-exp                         4.000000
        max-rad                        5.000000

      * Solvation model:               ALPB
        Solvent                        water
        Parameter file                 internal GFN2-xTB/ALPB
        Dielectric constant                8.0200E+01
        Reference state                gsolv [1 M gas/solution]
        Free energy shift                  1.0808E-03 Eh       6.7819E-01 kcal/mol
        Temperature                        2.9815E+02 K
        Density                            1.0000E+00 kg/L
        Solvent mass                       1.8000E+01 g/mol
        Interaction kernel             P16
        Born radius scaling (c1)           1.4744E+00
        Born radii integrator          GBOBC
        Born offset                        0.0000E+00 a0       0.0000E+00 AA
        H-bond correction              true
        Ion screening                  false
        Surface tension                    1.0000E-05 Eh       1.5569E+01 dyn/cm
        Grid points                               230 per atom

          ...................................................
          :                      SETUP                      :
          :.................................................:
          :  # basis functions                  48          :
          :  # atomic orbitals                  48          :
          :  # shells                           28          :
          :  # electrons                        52          :
          :  max. iterations                   250          :
          :  Hamiltonian                  GFN2-xTB          :
          :  restarted?                      false          :
          :  GBSA solvation                   true          :
          :  PC potential                    false          :
          :  electronic temp.          300.0000000     K    :
          :  accuracy                    1.0000000          :
          :  -> integral cutoff          0.2500000E+02      :
          :  -> integral neglect         0.1000000E-07      :
          :  -> SCF convergence          0.1000000E-05 Eh   :
          :  -> wf. convergence          0.1000000E-03 e    :
          :  Broyden damping             0.4000000          :
          ...................................................

 iter      E             dE          RMSdq      gap      omega  full diag
   1    -29.6943267 -0.296943E+02  0.528E+00    3.30       0.0  T
   2    -29.7338499 -0.395232E-01  0.285E+00    2.95       1.0  T
   3    -29.7322201  0.162981E-02  0.137E+00    3.30       1.0  T
   4    -29.7396339 -0.741387E-02  0.251E-01    3.13       1.0  T
   5    -29.7400009 -0.366950E-03  0.942E-02    3.13       1.0  T
   6    -29.7400431 -0.422501E-04  0.470E-02    3.13       1.0  T
   7    -29.7400476 -0.445907E-05  0.124E-02    3.13       1.9  T
   8    -29.7400483 -0.662091E-06  0.513E-03    3.13       4.6  T
   9    -29.7400484 -0.102086E-06  0.296E-03    3.13       8.0  T
  10    -29.7400484 -0.236674E-07  0.104E-03    3.13      22.7  T
  11    -29.7400484 -0.833434E-08  0.339E-04    3.13      69.6  T
  12    -29.7400484 -0.365667E-09  0.198E-04    3.13     119.0  T

   *** convergence criteria satisfied after 12 iterations ***

         #    Occupation            Energy/Eh            Energy/eV
      -------------------------------------------------------------
         1        2.0000           -0.7168782             -19.5072
       ...           ...                  ...                  ...
        20        2.0000           -0.4698594             -12.7855
        21        2.0000           -0.4650795             -12.6555
        22        2.0000           -0.4579157             -12.4605
        23        2.0000           -0.4280953             -11.6491
        24        2.0000           -0.4152988             -11.3009
        25        2.0000           -0.3964883             -10.7890
        26        2.0000           -0.3947453             -10.7416 (HOMO)
        27                         -0.2797137              -7.6114 (LUMO)
        28                         -0.2344487              -6.3797
        29                         -0.1930246              -5.2525
        30                         -0.0934574              -2.5431
        31                          0.0610481               1.6612
       ...                                ...                  ...
        48                          0.6365529              17.3215
      -------------------------------------------------------------
                  HL-Gap            0.1150316 Eh            3.1302 eV
             Fermi-level           -0.3372295 Eh           -9.1765 eV

 SCC (total)                   0 d,  0 h,  0 min,  0.011 sec
 SCC setup                      ...        0 min,  0.000 sec (  4.195%)
 Dispersion                     ...        0 min,  0.000 sec (  1.236%)
 classical contributions        ...        0 min,  0.000 sec (  0.221%)
 integral evaluation            ...        0 min,  0.002 sec ( 15.654%)
 iterations                     ...        0 min,  0.005 sec ( 46.369%)
 molecular gradient             ...        0 min,  0.003 sec ( 30.649%)
 printout                       ...        0 min,  0.000 sec (  1.437%)

         :::::::::::::::::::::::::::::::::::::::::::::::::::::
         ::                     SUMMARY                     ::
         :::::::::::::::::::::::::::::::::::::::::::::::::::::
         :: total energy             -29.334804323741 Eh    ::
         :: total w/o Gsasa/hb       -29.330069537412 Eh    ::
         :: gradient norm              0.020594895641 Eh/a0 ::
         :: HOMO-LUMO gap              3.130168527458 eV    ::
         ::.................................................::
         :: SCC energy               -29.740048391620 Eh    ::
         :: -> isotropic ES            0.067345962061 Eh    ::
         :: -> anisotropic ES          0.001282827049 Eh    ::
         :: -> anisotropic XC          0.010748476894 Eh    ::
         :: -> dispersion             -0.014226806461 Eh    ::
         :: -> Gsolv                  -0.017571053728 Eh    ::
         ::    -> Gelec               -0.012836267399 Eh    ::
         ::    -> Gsasa                0.001853640023 Eh    ::
         ::    -> Ghb                 -0.007669186050 Eh    ::
         ::    -> Gshift               0.001080759698 Eh    ::
         :: repulsion energy           0.405239194486 Eh    ::
         :: add. restraining           0.000000000000 Eh    ::
         :: total charge              -0.000000000000 e     ::
         :::::::::::::::::::::::::::::::::::::::::::::::::::::

      ----------------------------------------------------------- 
     |                   =====================                   |
     |                        A N C O P T                        |
     |                   =====================                   |
     |               Approximate Normal Coordinate               |
     |                Rational Function Optimizer                |
      ----------------------------------------------------------- 

          ...................................................
          :                      SETUP                      :
          :.................................................:
          :   optimization level            normal          :
          :   max. optcycles                   200          :
          :   ANC micro-cycles                  20          :
          :   degrees of freedom                48          :
          :.................................................:
          :   RF solver                   davidson          :
          :   write xtbopt.log                true          :
          :   linear?                        false          :
          :   energy convergence         0.5000000E-05 Eh   :
          :   grad. convergence          0.1000000E-02 Eh/α :
          :   maximium RF displ.         1.0000000          :
          :   Hlow (freq-cutoff)         0.1000000E-01      :
          :   Hmax (freq-cutoff)         5.0000000          :
          :   S6 in model hess.         20.0000000          :
          ...................................................

generating ANC from model Hessian ...
Using Lindh-Hessian (1995)
 Shifting diagonal of input Hessian by   8.172902537802923E-003
 Lowest  eigenvalues of input Hessian
    0.000000    0.000000    0.000000    0.000000    0.000000    0.000000
    0.010000    0.012503    0.014961    0.017497    0.022484    0.024892
    0.031639    0.033883    0.049248    0.050150    0.053970    0.059721
 Highest eigenvalues
    1.581646    1.729144    1.855563    1.963152    2.049018    2.123551
 

........................................................................
.............................. CYCLE    1 ..............................
........................................................................
   1    -29.7400484 -0.297400E+02  0.991E-05    3.13       0.0  T
   2    -29.7400484 -0.630003E-10  0.487E-05    3.13     483.9  T
   3    -29.7400484 -0.126796E-10  0.324E-05    3.13     726.6  T
     SCC iter.                  ...        0 min,  0.002 sec
     gradient                   ...        0 min,  0.003 sec
 * total energy  :   -29.3348043 Eh     change       -0.1911644E-09 Eh
   gradient norm :     0.0205953 Eh/α   predicted     0.0000000E+00 (-100.00%)
   displ. norm   :     0.1161032 α      lambda       -0.1305872E-02
   maximum displ.:     0.0874275 α      in ANC's #8, #26, #9, ...

........................................................................
.............................. CYCLE    2 ..............................
........................................................................
   1    -29.7542450 -0.297542E+02  0.106E-01    3.16       0.0  T
   2    -29.7542535 -0.843426E-05  0.616E-02    3.16       1.0  T
   3    -29.7542505  0.296487E-05  0.279E-02    3.16       1.0  T
   4    -29.7542558 -0.529350E-05  0.289E-03    3.16       8.2  T
   5    -29.7542558 -0.491603E-07  0.156E-03    3.16      15.1  T
   6    -29.7542558 -0.669524E-08  0.870E-04    3.16      27.1  T
   7    -29.7542558 -0.165813E-08  0.242E-04    3.16      97.5  T
     SCC iter.                  ...        0 min,  0.003 sec
     gradient                   ...        0 min,  0.003 sec
 * total energy  :   -29.3356384 Eh     change       -0.8340545E-03 Eh
   gradient norm :     0.0087375 Eh/α   predicted    -0.6617402E-03 ( -20.66%)
   displ. norm   :     0.0571127 α      lambda       -0.1949074E-03
   maximum displ.:     0.0426687 α      in ANC's #8, #9, #26, ...

........................................................................
.............................. CYCLE    3 ..............................
........................................................................
   1    -29.7585156 -0.297585E+02  0.499E-02    3.16       0.0  T
   2    -29.7585197 -0.413630E-05  0.275E-02    3.16       1.0  T
   3    -29.7585200 -0.220809E-06  0.163E-02    3.16       1.4  T
   4    -29.7585211 -0.112991E-05  0.195E-03    3.16      12.1  T
   5    -29.7585211 -0.238270E-07  0.922E-04    3.16      25.6  T
   6    -29.7585211 -0.584071E-08  0.458E-04    3.16      51.4  T
     SCC iter.                  ...        0 min,  0.003 sec
     gradient                   ...        0 min,  0.003 sec
 * total energy  :   -29.3357502 Eh     change       -0.1118010E-03 Eh
   gradient norm :     0.0033141 Eh/α   predicted    -0.9777049E-04 ( -12.55%)
   displ. norm   :     0.0168302 α      lambda       -0.2062989E-04
   maximum displ.:     0.0141461 α      in ANC's #9, #8, #12, ...

........................................................................
.............................. CYCLE    4 ..............................
........................................................................
   1    -29.7583194 -0.297583E+02  0.149E-02    3.15       0.0  T
   2    -29.7583200 -0.677668E-06  0.819E-03    3.16       2.9  T
   3    -29.7583202 -0.160657E-06  0.503E-03    3.16       4.7  T
   4    -29.7583203 -0.726164E-07  0.839E-04    3.16      28.1  T
   5    -29.7583203 -0.297753E-08  0.377E-04    3.16      62.6  T
     SCC iter.                  ...        0 min,  0.002 sec
     gradient                   ...        0 min,  0.003 sec
 * total energy  :   -29.3357641 Eh     change       -0.1397025E-04 Eh
   gradient norm :     0.0012856 Eh/α   predicted    -0.1031937E-04 ( -26.13%)
   displ. norm   :     0.0170992 α      lambda       -0.6556161E-05
   maximum displ.:     0.0145872 α      in ANC's #9, #8, #12, ...

........................................................................
.............................. CYCLE    5 ..............................
........................................................................
   1    -29.7574900 -0.297575E+02  0.129E-02    3.15       0.0  T
   2    -29.7574904 -0.453938E-06  0.754E-03    3.15       3.1  T
   3    -29.7574905 -0.970420E-07  0.448E-03    3.15       5.3  T
   4    -29.7574906 -0.639916E-07  0.692E-04    3.15      34.1  T
   5    -29.7574906 -0.207676E-08  0.322E-04    3.15      73.3  T
     SCC iter.                  ...        0 min,  0.002 sec
     gradient                   ...        0 min,  0.003 sec
 * total energy  :   -29.3357676 Eh     change       -0.3475782E-05 Eh
   gradient norm :     0.0007295 Eh/α   predicted    -0.3279363E-05 (  -5.65%)
   displ. norm   :     0.0044082 α      lambda       -0.8322355E-06
   maximum displ.:     0.0025633 α      in ANC's #8, #9, #12, ...

   *** GEOMETRY OPTIMIZATION CONVERGED AFTER 5 ITERATIONS ***

------------------------------------------------------------------------
 total energy gain   :        -0.0009633 Eh       -0.6045 kcal/mol
 total RMSD          :         0.0429734 a0        0.0227 Å
 total power (kW/mol):        -0.5058296 (step)  -58.9105 (real)
------------------------------------------------------------------------

 ANCopt (total)                0 d,  0 h,  0 min,  0.043 sec
 optimizer setup                ...        0 min,  0.000 sec (  0.401%)
 model hessian                  ...        0 min,  0.002 sec (  4.166%)
 ANC generation                 ...        0 min,  0.000 sec (  0.706%)
 coordinate transformation      ...        0 min,  0.000 sec (  0.064%)
 single point calculation       ...        0 min,  0.039 sec ( 90.192%)
 optimization log               ...        0 min,  0.001 sec (  2.503%)
 hessian update                 ...        0 min,  0.000 sec (  0.065%)
 rational function              ...        0 min,  0.001 sec (  1.226%)

================
 final structure:
================
18
 xtb: 6.4.1 (afa7bdf)
C         0.66485862519881    0.05602619084841    0.00001335554817
C        -0.10718527182416    1.22192454094105   -0.00002140554627
C        -1.48288819579557    1.16973344665373   -0.00005133285755
C        -2.13010665849823   -0.06565245808924   -0.00001399429794
C        -1.36871779052386   -1.23705772568467    0.00006088999491
C         0.00612086840833   -1.17785308920931    0.00007545890515
O        -3.47190121625734   -0.18341118311236   -0.00002835629015
H        -3.90438628206157    0.68541360587764   -0.00009312400742
H         0.40829066562969    2.17112158817460   -0.00008124604445
H        -2.05771461585063    2.08409419309339   -0.00009884733457
H        -1.88661287105043   -2.18300390858580    0.00010253029080
C         2.13094735735197    0.19059972112546   -0.00005868399604
O         2.66944114163850    1.29177201179965    0.00006260088911
C         2.94975237199853   -1.07160822719765   -0.00006014083506
H         2.72076177668059   -1.66079692715852    0.88402413368888
H         2.72020135758677   -1.66119808746393   -0.88371880215706
H         4.00550601265472   -0.81306231950506   -0.00043384741896
H         0.56540772471387   -2.09847237250740    0.00013481146845
 
 Bond Distances (Angstroems)
 ---------------------------
C1-C2=1.3983         C1-C6=1.3987         C1-C12=1.4723        C2-C1=1.3983         C2-C3=1.3767         C2-H9=1.0801         
C3-C2=1.3767         C3-C4=1.3947         C3-H10=1.0800        C4-C3=1.3947         C4-C5=1.3971         C4-O7=1.3470         
C5-C4=1.3971         C5-C6=1.3761         C5-H11=1.0784        C6-C1=1.3987         C6-C5=1.3761         C6-H18=1.0772        
O7-C4=1.3470         O7-H8=0.9705         H8-O7=0.9705         H9-C2=1.0801         H10-C3=1.0800        H11-C5=1.0784        
C12-C1=1.4723        C12-O13=1.2258       C12-C14=1.5045       O13-C12=1.2258       C14-C12=1.5045       C14-H15=1.0868       
C14-H16=1.0868       C14-H17=1.0870       H15-C14=1.0868       H16-C14=1.0868       H17-C14=1.0870       H18-C6=1.0772        
 C  H  Rav=1.0823 sigma=0.0040  Rmin=1.0772  Rmax=1.0870     7
 C  C  Rav=1.4148 sigma=0.0441  Rmin=1.3761  Rmax=1.5045     8
 O  H  Rav=0.9705 sigma=0.0000  Rmin=0.9705  Rmax=0.9705     1
 O  C  Rav=1.2864 sigma=0.0606  Rmin=1.2258  Rmax=1.3470     2
 
 selected bond angles (degree)
 --------------------
C6-C1-C2=118.39                C12-C1-C2=118.27               C12-C1-C6=123.34               C3-C2-C1=121.34                
H9-C2-C1=117.98                H9-C2-C3=120.68                C4-C3-C2=119.82                H10-C3-C2=119.98               
H10-C3-C4=120.19               C5-C4-C3=119.33                O7-C4-C3=122.67                O7-C4-C5=118.01                
C6-C5-C4=120.56                H11-C5-C4=118.28               H11-C5-C6=121.17               C5-C6-C1=120.56                
H18-C6-C1=120.62               H18-C6-C5=118.81               H8-O7-C4=111.45                
 
 selected dihedral angles (degree)
 ---------------------------------
C3-C2-C1-C6=  0.00            C3-C2-C1-C12=180.00           H9-C2-C1-C6=180.00            H9-C2-C1-C12=  0.00           
C4-C3-C2-C1=  0.00            C4-C3-C2-H9=180.00            H10-C3-C2-C1=180.00           H10-C3-C2-H9=  0.00           
C5-C4-C3-C2=  0.00            C5-C4-C3-H10=180.00           O7-C4-C3-C2=180.00            O7-C4-C3-H10=  0.00           
C6-C5-C4-C3=  0.00            C6-C5-C4-O7=180.00            H11-C5-C4-C3=180.00           H11-C5-C4-O7=  0.00           
C5-C6-C1-C2=  0.00            C5-C6-C1-C12=180.00           H18-C6-C1-C2=180.00           H18-C6-C1-C12=  0.00          
C1-C6-C5-C4=  0.00            C1-C6-C5-H11=180.00           H18-C6-C5-C4=180.00           H18-C6-C5-H11=  0.00          
H8-O7-C4-C3=  0.00            H8-O7-C4-C5=180.00            
           -------------------------------------------------
          |                Final Singlepoint                |
           -------------------------------------------------

          ...................................................
          :                      SETUP                      :
          :.................................................:
          :  # basis functions                  48          :
          :  # atomic orbitals                  48          :
          :  # shells                           28          :
          :  # electrons                        52          :
          :  max. iterations                   250          :
          :  Hamiltonian                  GFN2-xTB          :
          :  restarted?                      false          :
          :  GBSA solvation                   true          :
          :  PC potential                    false          :
          :  electronic temp.          300.0000000     K    :
          :  accuracy                    1.0000000          :
          :  -> integral cutoff          0.2500000E+02      :
          :  -> integral neglect         0.1000000E-07      :
          :  -> SCF convergence          0.1000000E-05 Eh   :
          :  -> wf. convergence          0.1000000E-03 e    :
          :  Broyden damping             0.4000000          :
          ...................................................

 iter      E             dE          RMSdq      gap      omega  full diag
   1    -29.7574906 -0.297575E+02  0.166E-04    3.15       0.0  T
   2    -29.7574906 -0.328946E-10  0.108E-04    3.15     217.3  T
   3    -29.7574906  0.307665E-11  0.631E-05    3.15     373.7  T

   *** convergence criteria satisfied after 3 iterations ***

         #    Occupation            Energy/Eh            Energy/eV
      -------------------------------------------------------------
         1        2.0000           -0.7184767             -19.5507
       ...           ...                  ...                  ...
        20        2.0000           -0.4699886             -12.7890
        21        2.0000           -0.4659861             -12.6801
        22        2.0000           -0.4572791             -12.4432
        23        2.0000           -0.4267965             -11.6137
        24        2.0000           -0.4158406             -11.3156
        25        2.0000           -0.3953417             -10.7578
        26        2.0000           -0.3940324             -10.7222 (HOMO)
        27                         -0.2782383              -7.5712 (LUMO)
        28                         -0.2317924              -6.3074
        29                         -0.1897577              -5.1636
        30                         -0.0883782              -2.4049
        31                          0.0688332               1.8730
       ...                                ...                  ...
        48                          0.6580691              17.9070
      -------------------------------------------------------------
                  HL-Gap            0.1157942 Eh            3.1509 eV
             Fermi-level           -0.3361354 Eh           -9.1467 eV

 SCC (total)                   0 d,  0 h,  0 min,  0.007 sec
 SCC setup                      ...        0 min,  0.000 sec (  4.584%)
 Dispersion                     ...        0 min,  0.000 sec (  0.580%)
 classical contributions        ...        0 min,  0.000 sec (  0.196%)
 integral evaluation            ...        0 min,  0.002 sec ( 21.818%)
 iterations                     ...        0 min,  0.002 sec ( 24.436%)
 molecular gradient             ...        0 min,  0.003 sec ( 46.251%)
 printout                       ...        0 min,  0.000 sec (  1.869%)

         :::::::::::::::::::::::::::::::::::::::::::::::::::::
         ::                     SUMMARY                     ::
         :::::::::::::::::::::::::::::::::::::::::::::::::::::
         :: total energy             -29.335767626153 Eh    ::
         :: total w/o Gsasa/hb       -29.330815792849 Eh    ::
         :: gradient norm              0.000725909129 Eh/a0 ::
         :: HOMO-LUMO gap              3.150919464918 eV    ::
         ::.................................................::
         :: SCC energy               -29.757490596135 Eh    ::
         :: -> isotropic ES            0.067355592856 Eh    ::
         :: -> anisotropic ES          0.001175748273 Eh    ::
         :: -> anisotropic XC          0.010028811197 Eh    ::
         :: -> dispersion             -0.014311986264 Eh    ::
         :: -> Gsolv                  -0.017910543694 Eh    ::
         ::    -> Gelec               -0.012958710390 Eh    ::
         ::    -> Gsasa                0.001823875664 Eh    ::
         ::    -> Ghb                 -0.007856468666 Eh    ::
         ::    -> Gshift               0.001080759698 Eh    ::
         :: repulsion energy           0.421717780574 Eh    ::
         :: add. restraining           0.000000000000 Eh    ::
         :: total charge              -0.000000000000 e     ::
         :::::::::::::::::::::::::::::::::::::::::::::::::::::

           ------------------------------------------------- 
          |                Numerical Hessian                |
           ------------------------------------------------- 
step length          :   0.00500
SCC accuracy         :   0.30000
Hessian scale factor :   1.00000
frozen atoms in %    :   0.00000    0
RMS gradient         :   0.00073
estimated CPU  time      0.01 min
estimated wall time      0.01 min

writing file <hessian>.

 projected vibrational frequencies (cm⁻¹)
eigval :       -0.00    -0.00    -0.00    -0.00     0.00     0.00
eigval :       48.74    99.95   190.88   194.63   274.13   333.39
eigval :      371.57   376.19   444.67   452.12   473.58   554.51
eigval :      575.02   609.25   687.71   702.09   815.55   850.92
eigval :      859.23   914.60   924.17   979.60   983.80  1001.74
eigval :     1093.07  1094.41  1134.65  1176.09  1248.80  1267.37
eigval :     1275.18  1345.21  1357.18  1422.18  1444.61  1453.75
eigval :     1481.42  1563.98  1580.11  1648.00  3035.28  3038.07
eigval :     3053.00  3076.46  3091.47  3105.45  3119.59  3430.26
           -------------------------------------------------
          |                Property Printout                |
           -------------------------------------------------

    * Orbital Energies and Occupations

         #    Occupation            Energy/Eh            Energy/eV
      -------------------------------------------------------------
         1        2.0000           -0.7184766             -19.5507
       ...           ...                  ...                  ...
        14        2.0000           -0.5307184             -14.4416
        15        2.0000           -0.5109237             -13.9029
        16        2.0000           -0.4982601             -13.5583
        17        2.0000           -0.4859119             -13.2223
        18        2.0000           -0.4782810             -13.0147
        19        2.0000           -0.4710734             -12.8186
        20        2.0000           -0.4699888             -12.7890
        21        2.0000           -0.4659861             -12.6801
        22        2.0000           -0.4572794             -12.4432
        23        2.0000           -0.4267965             -11.6137
        24        2.0000           -0.4158406             -11.3156
        25        2.0000           -0.3953418             -10.7578
        26        2.0000           -0.3940326             -10.7222 (HOMO)
        27                         -0.2782384              -7.5713 (LUMO)
        28                         -0.2317923              -6.3074
        29                         -0.1897579              -5.1636
        30                         -0.0883782              -2.4049
        31                          0.0688332               1.8730
        32                          0.0908012               2.4708
        33                          0.1405868               3.8256
        34                          0.1431235               3.8946
        35                          0.1489024               4.0518
        36                          0.1740887               4.7372
        37                          0.1912992               5.2055
       ...                                ...                  ...
        48                          0.6580691              17.9070
      -------------------------------------------------------------
                  HL-Gap            0.1157943 Eh            3.1509 eV
             Fermi-level           -0.3361355 Eh           -9.1467 eV

     #   Z          covCN         q      C6AA      α(0)
     1   6 C        2.969    -0.031    28.766     8.798
     2   6 C        2.926    -0.021    28.535     8.760
     3   6 C        2.914    -0.074    29.838     8.957
     4   6 C        2.846     0.161    24.524     8.116
     5   6 C        2.917    -0.060    29.486     8.905
     6   6 C        2.920    -0.032    28.799     8.800
     7   8 O        1.660    -0.432    21.477     6.256
     8   1 H        0.804     0.384     0.515     1.127
     9   1 H        0.926     0.055     2.264     2.353
    10   1 H        0.926     0.057     2.236     2.338
    11   1 H        0.926     0.066     2.126     2.280
    12   6 C        2.820     0.237    23.042     7.865
    13   8 O        0.858    -0.465    23.026     6.434
    14   6 C        3.754    -0.155    23.549     6.920
    15   1 H        0.925     0.087     1.906     2.159
    16   1 H        0.925     0.087     1.906     2.159
    17   1 H        0.925     0.069     2.099     2.266
    18   1 H        0.926     0.066     2.131     2.283

 Mol. C6AA /au·bohr⁶  :       3807.166287
 Mol. C8AA /au·bohr⁸  :      91795.184578
 Mol. α(0) /au        :         96.775124


Wiberg/Mayer (AO) data.
largest (>0.10) Wiberg bond orders for each atom

 ---------------------------------------------------------------------------
     #   Z sym  total        # sym  WBO       # sym  WBO       # sym  WBO
 ---------------------------------------------------------------------------
     1   6 C    3.987 --     2 C    1.360     6 C    1.354    12 C    1.061
     2   6 C    3.989 --     3 C    1.482     1 C    1.360     9 H    0.966
     3   6 C    3.986 --     2 C    1.482     4 C    1.348    10 H    0.964
     4   6 C    3.942 --     3 C    1.348     5 C    1.336     7 O    1.112
     5   6 C    3.987 --     6 C    1.495     4 C    1.336    11 H    0.966
     6   6 C    3.989 --     5 C    1.495     1 C    1.354    18 H    0.964
     7   8 O    2.107 --     4 C    1.112     8 H    0.831
     8   1 H    0.852 --     7 O    0.831
     9   1 H    0.997 --     2 C    0.966
    10   1 H    0.996 --     3 C    0.964
    11   1 H    0.995 --     5 C    0.966
    12   6 C    3.906 --    13 O    1.740     1 C    1.061    14 C    1.015
    13   8 O    1.979 --    12 C    1.740
    14   6 C    3.991 --    12 C    1.015    17 H    0.983    16 H    0.955
                            15 H    0.955
    15   1 H    0.992 --    14 C    0.955
    16   1 H    0.992 --    14 C    0.955
    17   1 H    0.995 --    14 C    0.983
    18   1 H    0.996 --     6 C    0.964
 ---------------------------------------------------------------------------

Topologies differ in total number of bonds
Writing topology from bond orders to xtbtopo.mol

molecular dipole:
                 x           y           z       tot (Debye)
 q only:       -1.500      -0.855      -0.000
   full:       -1.519      -0.752      -0.000       4.309
molecular quadrupole (traceless):
                xx          xy          yy          xz          yz          zz
 q only:        0.168     -17.591       1.133       0.000      -0.001      -1.301
  q+dip:        0.200     -20.258       3.139       0.000      -0.001      -3.340
   full:       -0.998     -20.368       1.338       0.000      -0.001      -0.340

           -------------------------------------------------
          |                Geometry Summary                 |
           -------------------------------------------------

      molecular mass/u    :      136.1482230
   center of mass at/Å    :       -0.0167942       0.0238942      -0.0000021
  moments of inertia/u·Å² :        0.1369676E+03   0.6316762E+03   0.7654941E+03
rotational constants/cm⁻¹ :        0.1230775E+00   0.2668714E-01   0.2202190E-01

 * 16 selected distances

     #   Z          #   Z                                           value/Å
     1   6 C        2   6 C                                       1.3983457
     2   6 C        3   6 C                                       1.3766926
     3   6 C        4   6 C                                       1.3946577
     4   6 C        5   6 C                                       1.3971053
     1   6 C        6   6 C                                       1.3987114 (max)
     5   6 C        6   6 C                                       1.3761128
     4   6 C        7   8 O                                       1.3469520
     7   8 O        8   1 H                                       0.9705152 (min)
     2   6 C        9   1 H                                       1.0801345
     3   6 C       10   1 H                                       1.0800375
     5   6 C       11   1 H                                       1.0784385
    12   6 C       13   8 O                                       1.2257879
    14   6 C       15   1 H                                       1.0868234
    14   6 C       16   1 H                                       1.0868130
    14   6 C       17   1 H                                       1.0869507
     6   6 C       18   1 H                                       1.0771916

 * 4 distinct bonds (by element types)

   Z      Z             #   av. dist./Å        max./Å        min./Å
   1 H    6 C           7     1.0823413     1.0869507     1.0771916
   6 C    6 C           6     1.3902709     1.3987114     1.3761128
   1 H    8 O           1     0.9705152     0.9705152     0.9705152
   6 C    8 O           2     1.2863700     1.3469520     1.2257879

           -------------------------------------------------
          |               Frequency Printout                |
           -------------------------------------------------
 projected vibrational frequencies (cm⁻¹)
eigval :       -0.00    -0.00    -0.00    -0.00     0.00     0.00
eigval :       48.74    99.95   190.88   194.63   274.13   333.39
eigval :      371.57   376.19   444.67   452.12   473.58   554.51
eigval :      575.02   609.25   687.71   702.09   815.55   850.92
eigval :      859.23   914.60   924.17   979.60   983.80  1001.74
eigval :     1093.07  1094.41  1134.65  1176.09  1248.80  1267.37
eigval :     1275.18  1345.21  1357.18  1422.18  1444.61  1453.75
eigval :     1481.42  1563.98  1580.11  1648.00  3035.28  3038.07
eigval :     3053.00  3076.46  3091.47  3105.45  3119.59  3430.26
 reduced masses (amu)
   1: 12.29   2: 12.10   3: 12.30   4: 12.19   5: 12.21   6: 11.82   7: 10.98   8: 12.74
   9: 11.79  10:  1.38  11: 11.51  12: 11.99  13:  8.19  14: 11.97  15:  2.86  16: 10.63
  17:  9.56  18: 12.30  19:  8.52  20: 11.43  21: 11.00  22: 11.13  23:  5.00  24: 11.88
  25:  3.33  26:  2.90  27:  3.92  28:  7.77  29:  5.95  30:  8.44  31:  6.34  32:  5.31
  33:  2.42  34:  2.39  35:  8.48  36:  4.16  37: 10.31  38: 11.26  39:  3.38  40: 10.30
  41:  2.18  42:  1.61  43:  9.54  44: 11.60  45: 11.67  46: 13.02  47:  1.96  48:  1.45
  49:  1.76  50:  1.80  51:  1.87  52:  1.80  53:  1.87  54:  1.86
 IR intensities (km·mol⁻¹)
   1:  1.80   2:  0.00   3:  0.59   4:  0.42   5:  0.12   6:  0.14   7:  9.65   8:  1.27
   9: 13.53  10:  2.73  11:  0.00  12:  1.41  13: 23.60  14:  9.82  15:189.84  16:  1.84
  17:  1.18  18: 56.67  19:  4.93  20:  1.93  21:  7.28  22:  1.27  23: 48.01  24: 41.29
  25:  0.05  26:  0.09  27:  0.36  28:130.04  29: 18.71  30:  0.20  31:289.33  32:186.96
  33: 83.94  34:191.84  35: 56.41  36:163.94  37:909.92  38: 20.36  39: 47.79  40: 30.24
  41: 54.81  42: 11.81  43: 35.41  44: 13.18  45:700.26  46:455.06  47:  5.95  48:  4.15
  49: 31.90  50: 36.75  51: 52.27  52: 18.92  53: 32.98  54:201.62
 Raman intensities (amu)
   1:  0.00   2:  0.00   3:  0.00   4:  0.00   5:  0.00   6:  0.00   7:  0.00   8:  0.00
   9:  0.00  10:  0.00  11:  0.00  12:  0.00  13:  0.00  14:  0.00  15:  0.00  16:  0.00
  17:  0.00  18:  0.00  19:  0.00  20:  0.00  21:  0.00  22:  0.00  23:  0.00  24:  0.00
  25:  0.00  26:  0.00  27:  0.00  28:  0.00  29:  0.00  30:  0.00  31:  0.00  32:  0.00
  33:  0.00  34:  0.00  35:  0.00  36:  0.00  37:  0.00  38:  0.00  39:  0.00  40:  0.00
  41:  0.00  42:  0.00  43:  0.00  44:  0.00  45:  0.00  46:  0.00  47:  0.00  48:  0.00
  49:  0.00  50:  0.00  51:  0.00  52:  0.00  53:  0.00  54:  0.00
 output can be read by thermo (or use thermo option).
 writing <g98.out> molden fake output.
 recommended (thermochemical) frequency scaling factor: 1.0
           -------------------------------------------------
          |             Thermodynamic Functions             |
           -------------------------------------------------

Molecule has the following symmetry elements: (sigma) 
It seems to be the Cs point group
cs  symmetry found (for desy threshold:  0.10E+00) used in thermo

          ...................................................
          :                      SETUP                      :
          :.................................................:
          :  # frequencies                          48      :
          :  # imaginary freq.                       0      :
          :  linear?                             false      :
          :  only rotor calc.                    false      :
          :  symmetry                               cs      :
          :  rotational number                       1      :
          :  scaling factor                  1.0000000      :
          :  rotor cutoff                   50.0000000 cm⁻¹ :
          :  imag. cutoff                  -20.0000000 cm⁻¹ :
          :.................................................:

    mode    ω/cm⁻¹     T·S(HO)/kcal·mol⁻¹    T·S(FR)/kcal·mol⁻¹   T·S(vib)
   ------------------------------------------------------------------------
       1     48.74    -1.45135 ( 47.45%)    -1.06391 ( 52.55%)    -1.24775
       2     99.95    -1.03019 ( 94.11%)    -0.85126 (  5.89%)    -1.01965
       3    190.88    -0.66167 ( 99.53%)    -0.65964 (  0.47%)    -0.66166
       4    194.63    -0.65095 ( 99.57%)    -0.65389 (  0.43%)    -0.65097
       5    274.13    -0.46811 ( 99.89%)    -0.55244 (  0.11%)    -0.46820
   ------------------------------------------------------------------------

   temp. (K)  partition function   enthalpy   heat capacity  entropy
                                   cal/mol     cal/K/mol   cal/K/mol   J/K/mol
 298.15  VIB   175.                 3979.919     29.137     22.899
         ROT  0.622E+06              888.752      2.981     29.491
         INT  0.109E+09             4868.671     32.118     52.390
         TR   0.154E+28             1481.254      4.968     40.619
         TOT                        6349.9253    37.0862    93.0094   389.1513

       T/K    H(0)-H(T)+PV         H(T)/Eh          T*S/Eh         G(T)/Eh
   ------------------------------------------------------------------------
    298.15    0.101193E-01    0.147387E+00    0.441918E-01    0.103195E+00
   ------------------------------------------------------------------------

         :::::::::::::::::::::::::::::::::::::::::::::::::::::
         ::                  THERMODYNAMIC                  ::
         :::::::::::::::::::::::::::::::::::::::::::::::::::::
         :: total free energy         -29.232572258197 Eh   ::
         ::.................................................::
         :: total energy              -29.335767625653 Eh   ::
         :: zero point energy           0.137267883303 Eh   ::
         :: G(RRHO) w/o ZPVE           -0.034072515847 Eh   ::
         :: G(RRHO) contrib.            0.103195367456 Eh   ::
         :::::::::::::::::::::::::::::::::::::::::::::::::::::

optimized geometry written to: xtbopt.xyz


           -------------------------------------------------
          | TOTAL ENERGY              -29.335767625653 Eh   |
          | TOTAL ENTHALPY            -29.188380492249 Eh   |
          | TOTAL FREE ENERGY         -29.232572258197 Eh   |
          | GRADIENT NORM               0.000725675341 Eh/α |
          | HOMO-LUMO GAP               3.150922928571 eV   |
           -------------------------------------------------

------------------------------------------------------------------------
 * finished run on 2021/11/15 at 09:36:11.942     
------------------------------------------------------------------------
 total:
 * wall-time:     0 d,  0 h,  0 min,  0.951 sec
 *  cpu-time:     0 d,  0 h,  0 min,  0.938 sec
 * ratio c/w:     0.986 speedup
 SCF:
 * wall-time:     0 d,  0 h,  0 min,  0.011 sec
 *  cpu-time:     0 d,  0 h,  0 min,  0.016 sec
 * ratio c/w:     1.400 speedup
 ANC optimizer:
 * wall-time:     0 d,  0 h,  0 min,  0.052 sec
 *  cpu-time:     0 d,  0 h,  0 min,  0.047 sec
 * ratio c/w:     0.907 speedup
 analytical hessian:
 * wall-time:     0 d,  0 h,  0 min,  0.850 sec
 *  cpu-time:     0 d,  0 h,  0 min,  0.844 sec
 * ratio c/w:     0.992 speedup

