 Entering Gaussian System
 *********************************************
 Gaussian 98:
 frequency output generated by the xtb code
 *********************************************
                         Standard orientation:
 --------------------------------------------------------------------
  Center     Atomic     Atomic              Coordinates (Angstroms)
  Number     Number      Type              X           Y           Z
 --------------------------------------------------------------------
    1          6             0        0.664859    0.056023    0.000011
    2          6             0       -0.107179    1.221925   -0.000023
    3          6             0       -1.482882    1.169741   -0.000048
    4          6             0       -2.130107   -0.065641   -0.000006
    5          6             0       -1.368724   -1.237051    0.000068
    6          6             0        0.006115   -1.177853    0.000077
    7          8             0       -3.471902   -0.183393   -0.000016
    8          1             0       -3.904383    0.685434   -0.000081
    9          1             0        0.408302    2.171119   -0.000086
   10          1             0       -2.057704    2.084105   -0.000095
   11          1             0       -1.886624   -2.182994    0.000113
   12          6             0        2.130948    0.190589   -0.000066
   13          8             0        2.669448    1.291758    0.000051
   14          6             0        2.949747   -1.071624   -0.000069
   15          1             0        2.720756   -1.660810    0.884018
   16          1             0        2.720190   -1.661214   -0.883725
   17          1             0        4.005502   -0.813083   -0.000446
   18          1             0        0.565397   -2.098475    0.000137
 --------------------------------------------------------------------
     1 basis functions        1 primitive gaussians
     1 alpha electrons        1 beta electrons
 
 Harmonic frequencies (cm**-1), IR intensities (km*mol⁻¹),
 Raman scattering activities (A**4/amu), Raman depolarization ratios,
 reduced masses (AMU), force constants (mDyne/A) and normal coordinates:
                      1                      2                      3
                        a                      a                      a 
 Frequencies --    48.7401                99.9503               190.8819
 Red. masses --    10.9816                12.7410                11.7948
 Frc consts  --     0.0000                 0.0000                 0.0000
 IR Inten    --     9.6456                 1.2675                13.5314
 Raman Activ --     0.0000                 0.0000                 0.0000
 Depolar     --     0.0000                 0.0000                 0.0000
 Atom AN      X      Y      Z        X      Y      Z        X      Y      Z
   1   6     0.00  -0.00  -0.02     0.00   0.00   0.31     0.00  -0.31  -0.00
   2   6     0.00  -0.00   0.22     0.00   0.00   0.37     0.13  -0.23   0.00
   3   6     0.00   0.00   0.27     0.00   0.00   0.21     0.14  -0.04   0.00
   4   6    -0.00   0.00   0.02     0.00  -0.00  -0.03    -0.00   0.04  -0.00
   5   6    -0.00  -0.00  -0.26     0.00   0.00   0.16    -0.14  -0.06  -0.00
   6   6    -0.00  -0.00  -0.26     0.00   0.00   0.33    -0.11  -0.25  -0.00
   7   8    -0.00   0.00   0.03     0.00  -0.00  -0.56    -0.03   0.37   0.00
   8   1    -0.00   0.00   0.06     0.00  -0.00  -0.16     0.05   0.12   0.00
   9   1     0.00   0.00   0.12     0.00   0.00   0.13     0.08  -0.09   0.00
  10   1     0.00   0.00   0.14     0.00   0.00   0.05     0.08   0.01   0.00
  11   1    -0.00  -0.00  -0.14     0.00   0.00   0.02    -0.08   0.00  -0.00
  12   6    -0.00  -0.00  -0.04    -0.00   0.00  -0.04    -0.02  -0.05  -0.00
  13   8    -0.00   0.00  -0.54     0.00   0.00  -0.36    -0.43   0.15   0.00
  14   6     0.00  -0.00   0.50    -0.00  -0.00  -0.22     0.39   0.24   0.00
  15   1    -0.10   0.04   0.14     0.07   0.01  -0.04     0.17   0.05   0.00
  16   1     0.10  -0.04   0.14    -0.07  -0.01  -0.04     0.16   0.04   0.01
  17   1     0.00  -0.00   0.24    -0.00  -0.00  -0.15     0.09   0.17  -0.00
  18   1    -0.00  -0.00  -0.14    -0.00   0.00   0.12    -0.05  -0.09  -0.00
                      4                      5                      6
                        a                      a                      a 
 Frequencies --   194.6259               274.1272               333.3888
 Red. masses --     1.3845                11.5139                11.9865
 Frc consts  --     0.0000                 0.0000                 0.0000
 IR Inten    --     2.7257                 0.0006                 1.4064
 Raman Activ --     0.0000                 0.0000                 0.0000
 Depolar     --     0.0000                 0.0000                 0.0000
 Atom AN      X      Y      Z        X      Y      Z        X      Y      Z
   1   6     0.00  -0.00   0.06     0.00   0.00   0.51     0.07   0.06   0.00
   2   6     0.00  -0.00  -0.01     0.00  -0.00   0.12    -0.13  -0.03   0.00
   3   6     0.00  -0.00  -0.05     0.00  -0.00  -0.36    -0.17  -0.05  -0.00
   4   6     0.00   0.00   0.02     0.00  -0.00  -0.25    -0.31   0.01   0.00
   5   6    -0.00  -0.00   0.09    -0.00  -0.00  -0.40    -0.15   0.11   0.00
   6   6    -0.00  -0.00   0.08    -0.00  -0.00   0.13    -0.11   0.14  -0.00
   7   8    -0.00   0.00  -0.02    -0.00   0.00   0.37    -0.39  -0.07  -0.00
   8   1     0.00   0.00  -0.03    -0.00   0.00   0.11    -0.11  -0.03  -0.00
   9   1     0.00  -0.00  -0.01     0.00  -0.00   0.05    -0.08   0.02   0.00
  10   1     0.00   0.00  -0.04     0.00  -0.00  -0.17    -0.02   0.00  -0.00
  11   1    -0.00   0.00   0.04    -0.00  -0.00  -0.18    -0.01   0.01   0.00
  12   6    -0.00  -0.00   0.04    -0.00   0.00   0.25     0.20  -0.07   0.00
  13   8    -0.00   0.00  -0.07     0.00   0.00  -0.20     0.42  -0.17  -0.00
  14   6     0.00   0.00  -0.06    -0.00  -0.00  -0.09     0.48   0.07  -0.00
  15   1    -0.37  -0.33  -0.34     0.07  -0.05  -0.04     0.20  -0.01  -0.00
  16   1     0.37   0.33  -0.34    -0.07   0.05  -0.04     0.20  -0.01   0.00
  17   1     0.00   0.00   0.50    -0.00  -0.00  -0.10     0.11   0.13   0.00
  18   1    -0.00  -0.00   0.01    -0.00  -0.00   0.06    -0.04   0.03  -0.00
                      7                      8                      9
                        a                      a                      a 
 Frequencies --   371.5663               376.1874               444.6680
 Red. masses --     8.1950                11.9716                 2.8607
 Frc consts  --     0.0000                 0.0000                 0.0000
 IR Inten    --    23.5997                 9.8211               189.8352
 Raman Activ --     0.0000                 0.0000                 0.0000
 Depolar     --     0.0000                 0.0000                 0.0000
 Atom AN      X      Y      Z        X      Y      Z        X      Y      Z
   1   6     0.00   0.00  -0.02    -0.07  -0.05   0.00    -0.00   0.00   0.02
   2   6    -0.00  -0.00  -0.42     0.07   0.07  -0.00    -0.00   0.00  -0.13
   3   6    -0.00  -0.00   0.40     0.03   0.37   0.00    -0.00   0.00   0.17
   4   6    -0.00  -0.00  -0.01     0.07   0.34  -0.00     0.00   0.00   0.06
   5   6    -0.00  -0.00  -0.37    -0.03   0.29  -0.00     0.00  -0.00  -0.19
   6   6     0.00   0.00   0.41    -0.07  -0.01   0.00     0.00   0.00   0.09
   7   8    -0.00   0.00  -0.09     0.18  -0.53  -0.00     0.00   0.00   0.23
   8   1     0.00   0.00   0.32    -0.15  -0.23   0.00     0.00  -0.00  -0.90
   9   1    -0.00  -0.00  -0.26     0.08  -0.01  -0.00    -0.00   0.00  -0.09
  10   1    -0.00  -0.00   0.24     0.05   0.13   0.00    -0.00   0.00   0.09
  11   1     0.00  -0.00  -0.21    -0.09   0.13  -0.00     0.00  -0.00  -0.12
  12   6     0.00   0.00   0.01    -0.10  -0.19   0.00    -0.00  -0.00   0.02
  13   8     0.00   0.00   0.01    -0.27  -0.14  -0.00    -0.00  -0.00  -0.00
  14   6     0.00   0.00  -0.01     0.17  -0.04  -0.00     0.00  -0.00  -0.01
  15   1    -0.01  -0.02  -0.02     0.10  -0.03  -0.00     0.00  -0.01  -0.00
  16   1     0.01   0.02  -0.02     0.10  -0.03   0.00    -0.00   0.01  -0.00
  17   1     0.00   0.00   0.02     0.03   0.08   0.00     0.00   0.00  -0.01
  18   1     0.00   0.00   0.28    -0.04  -0.02   0.00     0.00   0.00   0.03
                     10                     11                     12
                        a                      a                      a 
 Frequencies --   452.1241               473.5811               554.5131
 Red. masses --    10.6314                 9.5595                12.2982
 Frc consts  --     0.0000                 0.0000                 0.0000
 IR Inten    --     1.8355                 1.1818                56.6738
 Raman Activ --     0.0000                 0.0000                 0.0000
 Depolar     --     0.0000                 0.0000                 0.0000
 Atom AN      X      Y      Z        X      Y      Z        X      Y      Z
   1   6    -0.21   0.25  -0.00    -0.00   0.00   0.33     0.24   0.14  -0.00
   2   6    -0.14   0.34   0.00    -0.00   0.00  -0.29     0.10   0.07  -0.00
   3   6    -0.10  -0.03  -0.00    -0.00  -0.00   0.04     0.08  -0.16   0.00
   4   6     0.17  -0.17  -0.00     0.00  -0.00   0.55    -0.16  -0.07  -0.00
   5   6     0.10  -0.20  -0.00     0.00  -0.00   0.06     0.12   0.13   0.00
   6   6     0.06   0.16   0.00     0.00   0.00  -0.30     0.13   0.30  -0.00
   7   8     0.20   0.20   0.00     0.00   0.00  -0.23    -0.27  -0.01   0.00
   8   1     0.14   0.09   0.00     0.00   0.00   0.02    -0.04   0.01   0.00
   9   1    -0.07   0.11   0.00    -0.00   0.00  -0.28    -0.04   0.06   0.00
  10   1    -0.13  -0.07   0.00    -0.00  -0.00  -0.16     0.04  -0.03   0.00
  11   1     0.06  -0.07   0.00     0.00  -0.00  -0.15     0.13  -0.02   0.00
  12   6    -0.24  -0.25  -0.00    -0.00  -0.00   0.31     0.23  -0.16   0.00
  13   8    -0.19  -0.34  -0.00    -0.00  -0.00  -0.11    -0.52   0.18  -0.00
  14   6     0.20  -0.02   0.00     0.00  -0.00  -0.01     0.13  -0.38   0.00
  15   1     0.18  -0.05   0.00     0.08  -0.08  -0.04    -0.03  -0.08  -0.00
  16   1     0.18  -0.05  -0.00    -0.08   0.08  -0.04    -0.03  -0.08   0.00
  17   1     0.01   0.20   0.00    -0.00   0.00  -0.09     0.06  -0.23  -0.00
  18   1     0.12   0.11   0.00     0.00   0.00  -0.29     0.03   0.08   0.00
                     13                     14                     15
                        a                      a                      a 
 Frequencies --   575.0207               609.2483               687.7100
 Red. masses --     8.5230                11.4333                10.9989
 Frc consts  --     0.0000                 0.0000                 0.0000
 IR Inten    --     4.9343                 1.9340                 7.2761
 Raman Activ --     0.0000                 0.0000                 0.0000
 Depolar     --     0.0000                 0.0000                 0.0000
 Atom AN      X      Y      Z        X      Y      Z        X      Y      Z
   1   6    -0.00  -0.00  -0.28     0.02  -0.09   0.00    -0.00  -0.00  -0.52
   2   6    -0.00  -0.00  -0.12    -0.37  -0.29   0.00    -0.00   0.00   0.28
   3   6    -0.00   0.00   0.13    -0.39   0.20  -0.00    -0.00   0.00  -0.29
   4   6     0.00   0.00  -0.29    -0.02   0.09   0.00     0.00   0.00   0.52
   5   6    -0.00  -0.00   0.15     0.40   0.27  -0.00    -0.00  -0.00  -0.28
   6   6    -0.00  -0.00  -0.14     0.43  -0.23  -0.00    -0.00  -0.00   0.29
   7   8     0.00   0.00   0.05    -0.05   0.17  -0.00     0.00   0.00  -0.08
   8   1     0.00  -0.00  -0.01     0.04   0.07   0.00     0.00   0.00  -0.01
   9   1     0.00  -0.00   0.11    -0.08  -0.09   0.00    -0.00   0.00   0.12
  10   1    -0.00   0.00   0.23    -0.08   0.08  -0.00    -0.00  -0.00  -0.12
  11   1    -0.00   0.00   0.22     0.10   0.08  -0.00    -0.00  -0.00  -0.14
  12   6    -0.00   0.00   0.62    -0.01  -0.03   0.00     0.00   0.00   0.16
  13   8     0.00  -0.00  -0.21    -0.05  -0.03  -0.00     0.00   0.00  -0.05
  14   6    -0.00   0.00   0.04     0.02  -0.07   0.00     0.00  -0.00   0.04
  15   1     0.18  -0.22  -0.10     0.02  -0.02   0.00     0.07  -0.10  -0.04
  16   1    -0.18   0.22  -0.10     0.02  -0.02  -0.00    -0.07   0.10  -0.04
  17   1    -0.00   0.00  -0.16     0.00  -0.01  -0.00     0.00  -0.00  -0.06
  18   1    -0.00  -0.00   0.10     0.08  -0.08   0.00    -0.00  -0.00   0.10
                     16                     17                     18
                        a                      a                      a 
 Frequencies --   702.0908               815.5534               850.9218
 Red. masses --    11.1345                 5.0039                11.8804
 Frc consts  --     0.0000                 0.0000                 0.0000
 IR Inten    --     1.2656                48.0075                41.2864
 Raman Activ --     0.0000                 0.0000                 0.0000
 Depolar     --     0.0000                 0.0000                 0.0000
 Atom AN      X      Y      Z        X      Y      Z        X      Y      Z
   1   6     0.06  -0.00  -0.00     0.00   0.00   0.24    -0.21  -0.01   0.00
   2   6     0.27  -0.01   0.00    -0.00  -0.00  -0.17     0.16   0.44   0.00
   3   6     0.28  -0.16  -0.00    -0.00   0.00  -0.27     0.04   0.30   0.00
   4   6    -0.16  -0.01   0.00    -0.00   0.00   0.32     0.02   0.00  -0.00
   5   6     0.23   0.18  -0.00    -0.00  -0.00  -0.21     0.06  -0.29  -0.00
   6   6     0.24   0.03   0.00    -0.00  -0.00  -0.21     0.19  -0.44  -0.00
   7   8    -0.37  -0.03  -0.00     0.00  -0.00  -0.07    -0.43  -0.02  -0.00
   8   1    -0.09  -0.01  -0.00     0.00  -0.00  -0.03    -0.10  -0.01  -0.00
   9   1     0.09  -0.01   0.00     0.00   0.00   0.30     0.15   0.07  -0.00
  10   1     0.15  -0.00  -0.00    -0.00   0.00   0.50    -0.04   0.06  -0.00
  11   1     0.14   0.01  -0.00    -0.00   0.00   0.40    -0.05  -0.05   0.00
  12   6    -0.31  -0.07   0.00     0.00  -0.00  -0.04     0.03   0.08  -0.00
  13   8    -0.02  -0.29  -0.00    -0.00   0.00   0.01     0.06   0.12   0.00
  14   6    -0.26   0.30   0.00     0.00  -0.00  -0.05     0.10  -0.13   0.00
  15   1     0.03   0.05   0.01    -0.05   0.07   0.02     0.01  -0.03   0.00
  16   1     0.03   0.05  -0.01     0.05  -0.07   0.02     0.01  -0.03  -0.00
  17   1    -0.12   0.28  -0.00     0.00  -0.00   0.05     0.04  -0.10  -0.00
  18   1     0.07   0.01   0.00     0.00   0.00   0.35     0.14  -0.08   0.00
                     19                     20                     21
                        a                      a                      a 
 Frequencies --   859.2325               914.5969               924.1666
 Red. masses --     3.3335                 2.9029                 3.9191
 Frc consts  --     0.0000                 0.0000                 0.0000
 IR Inten    --     0.0495                 0.0946                 0.3580
 Raman Activ --     0.0000                 0.0000                 0.0000
 Depolar     --     0.0000                 0.0000                 0.0000
 Atom AN      X      Y      Z        X      Y      Z        X      Y      Z
   1   6    -0.00  -0.00   0.01    -0.00  -0.00   0.00     0.00  -0.00   0.02
   2   6     0.00   0.00  -0.17     0.00   0.00   0.15     0.00  -0.00  -0.36
   3   6     0.00   0.00  -0.26     0.00  -0.00  -0.06    -0.00   0.00   0.25
   4   6     0.00  -0.00  -0.03    -0.00  -0.00  -0.03     0.00  -0.00   0.03
   5   6     0.00  -0.00   0.23     0.00  -0.00  -0.27     0.00  -0.00  -0.18
   6   6     0.00  -0.00   0.25     0.00  -0.00   0.26     0.00   0.00   0.20
   7   8    -0.00  -0.00   0.00    -0.00  -0.00  -0.01    -0.00  -0.00  -0.01
   8   1    -0.00   0.00   0.02    -0.00   0.00   0.01     0.00   0.00   0.01
   9   1     0.00   0.00   0.30    -0.00  -0.00  -0.38     0.00   0.00   0.65
  10   1    -0.00   0.00   0.53    -0.00   0.00   0.20     0.00  -0.00  -0.42
  11   1     0.00  -0.00  -0.44    -0.00   0.00   0.57     0.00   0.00   0.25
  12   6     0.00   0.00  -0.01    -0.00   0.00  -0.01     0.00  -0.00   0.01
  13   8     0.00   0.00   0.01     0.00   0.00   0.01    -0.00   0.00  -0.00
  14   6     0.00  -0.00   0.00    -0.00  -0.00   0.03    -0.00  -0.00  -0.02
  15   1     0.00   0.00   0.00     0.02  -0.03  -0.01    -0.02   0.03   0.01
  16   1    -0.00  -0.00   0.00    -0.02   0.03  -0.01     0.02  -0.03   0.01
  17   1    -0.00  -0.00  -0.01    -0.00   0.00  -0.03     0.00  -0.00   0.01
  18   1     0.00  -0.00  -0.48    -0.00  -0.00  -0.56    -0.00  -0.00  -0.28
                     22                     23                     24
                        a                      a                      a 
 Frequencies --   979.6000               983.8036              1001.7422
 Red. masses --     7.7687                 5.9473                 8.4401
 Frc consts  --     0.0000                 0.0000                 0.0000
 IR Inten    --   130.0423                18.7147                 0.2028
 Raman Activ --     0.0000                 0.0000                 0.0000
 Depolar     --     0.0000                 0.0000                 0.0000
 Atom AN      X      Y      Z        X      Y      Z        X      Y      Z
   1   6    -0.08   0.02   0.00     0.00  -0.00   0.14    -0.19  -0.01   0.00
   2   6     0.01  -0.03  -0.00    -0.00   0.00  -0.04     0.01   0.32  -0.00
   3   6     0.11  -0.20  -0.00    -0.00   0.00  -0.01     0.07  -0.43   0.00
   4   6    -0.07   0.03   0.00     0.00  -0.00   0.01    -0.08  -0.02   0.00
   5   6     0.00   0.14  -0.00    -0.00  -0.00  -0.01     0.05   0.45  -0.00
   6   6    -0.01  -0.08  -0.00     0.00   0.00  -0.03     0.03  -0.30   0.00
   7   8     0.08   0.01  -0.00    -0.00  -0.00  -0.00     0.12  -0.01   0.00
   8   1    -0.04  -0.02  -0.00     0.00   0.00   0.00     0.07   0.02   0.00
   9   1    -0.04   0.01   0.00     0.00  -0.00   0.07    -0.14   0.16   0.00
  10   1     0.05  -0.04  -0.00    -0.00   0.00  -0.00    -0.16  -0.23   0.00
  11   1    -0.05   0.06   0.00     0.00  -0.00   0.01    -0.16   0.22  -0.00
  12   6    -0.25   0.27  -0.00     0.00  -0.00  -0.50    -0.01  -0.01  -0.00
  13   8     0.13   0.30   0.00    -0.00  -0.00   0.10     0.01  -0.05  -0.00
  14   6    -0.09  -0.47   0.00     0.00   0.00   0.40     0.15   0.07   0.00
  15   1     0.32  -0.23   0.02     0.27  -0.41  -0.11    -0.11   0.06  -0.01
  16   1     0.32  -0.23  -0.02    -0.27   0.41  -0.11    -0.11   0.06   0.01
  17   1    -0.11   0.29  -0.00     0.00  -0.00  -0.21     0.09  -0.19  -0.00
  18   1     0.01  -0.01   0.00    -0.00   0.00   0.05    -0.16  -0.18   0.00
                     25                     26                     27
                        a                      a                      a 
 Frequencies --  1093.0685              1094.4131              1134.6507
 Red. masses --     6.3367                 5.3113                 2.4211
 Frc consts  --     0.0000                 0.0000                 0.0000
 IR Inten    --   289.3278               186.9587                83.9392
 Raman Activ --     0.0000                 0.0000                 0.0000
 Depolar     --     0.0000                 0.0000                 0.0000
 Atom AN      X      Y      Z        X      Y      Z        X      Y      Z
   1   6     0.33  -0.05   0.00    -0.28  -0.09   0.00    -0.02   0.15  -0.00
   2   6     0.05   0.18  -0.00     0.03  -0.06   0.00    -0.09  -0.12  -0.00
   3   6    -0.12   0.14  -0.00     0.05   0.10  -0.00     0.11  -0.07   0.00
   4   6     0.06  -0.12   0.00     0.01  -0.17   0.00     0.06   0.06  -0.00
   5   6    -0.09   0.05  -0.00     0.05   0.19  -0.00    -0.08  -0.08   0.00
   6   6    -0.00  -0.08   0.00    -0.09   0.17  -0.00     0.11  -0.05   0.00
   7   8    -0.13  -0.15   0.00    -0.14  -0.21   0.00    -0.10  -0.09   0.00
   8   1     0.43   0.20   0.00     0.60   0.27   0.00     0.24   0.11   0.00
   9   1    -0.03   0.08  -0.00     0.30  -0.18  -0.00    -0.34   0.13  -0.00
  10   1    -0.19  -0.05  -0.00     0.09   0.08  -0.00     0.42   0.22  -0.00
  11   1    -0.17   0.09  -0.00     0.16  -0.02   0.00    -0.50   0.23  -0.00
  12   6     0.31  -0.16  -0.00    -0.19   0.14   0.00     0.00  -0.00   0.00
  13   8    -0.07   0.04   0.00     0.07   0.02   0.00    -0.02  -0.04  -0.00
  14   6    -0.29   0.04   0.00     0.17  -0.07  -0.00     0.02   0.02   0.00
  15   1     0.11  -0.04   0.01    -0.03  -0.01  -0.01    -0.02   0.02   0.01
  16   1     0.11  -0.04  -0.01    -0.03  -0.01   0.01    -0.02   0.02  -0.01
  17   1    -0.15   0.33   0.00     0.08  -0.16  -0.00     0.02  -0.05  -0.00
  18   1    -0.20  -0.15   0.00    -0.05   0.04   0.00     0.33   0.17  -0.00
                     28                     29                     30
                        a                      a                      a 
 Frequencies --  1176.0885              1248.8027              1267.3716
 Red. masses --     2.3897                 8.4825                 4.1593
 Frc consts  --     0.0000                 0.0000                 0.0000
 IR Inten    --   191.8430                56.4063               163.9410
 Raman Activ --     0.0000                 0.0000                 0.0000
 Depolar     --     0.0000                 0.0000                 0.0000
 Atom AN      X      Y      Z        X      Y      Z        X      Y      Z
   1   6     0.10   0.00  -0.00    -0.35  -0.03   0.00     0.06   0.27  -0.00
   2   6    -0.06   0.13  -0.00    -0.02   0.11  -0.00    -0.09   0.11  -0.00
   3   6     0.05   0.09  -0.00    -0.05  -0.13   0.00    -0.15  -0.10   0.00
   4   6    -0.16  -0.01  -0.00    -0.31   0.05  -0.00    -0.20  -0.20   0.00
   5   6     0.02  -0.06   0.00    -0.05   0.12  -0.00     0.05  -0.10   0.00
   6   6    -0.06  -0.15   0.00    -0.05  -0.16   0.00     0.15   0.02  -0.00
   7   8     0.10  -0.02   0.00     0.22   0.00   0.00     0.15   0.07  -0.00
   8   1     0.09   0.03  -0.00     0.06   0.01   0.00    -0.11  -0.06  -0.00
   9   1    -0.41   0.25  -0.00     0.15  -0.06   0.00     0.48  -0.24   0.00
  10   1     0.42   0.28  -0.00     0.20   0.10   0.00     0.34   0.21   0.00
  11   1     0.40  -0.23   0.00     0.25  -0.11   0.00    -0.30   0.14  -0.00
  12   6    -0.10   0.02   0.00     0.47  -0.21  -0.00     0.00  -0.04   0.00
  13   8     0.01  -0.01  -0.00    -0.01   0.09   0.00    -0.02  -0.01  -0.00
  14   6     0.04  -0.01  -0.00    -0.18   0.05   0.00     0.03  -0.01  -0.00
  15   1    -0.02  -0.00  -0.01     0.03   0.03   0.03    -0.03  -0.00  -0.01
  16   1    -0.02  -0.00   0.01     0.03   0.03  -0.03    -0.03  -0.00   0.01
  17   1     0.01  -0.01   0.00    -0.08   0.16   0.00    -0.00   0.04   0.00
  18   1    -0.34  -0.24   0.00     0.34   0.18  -0.00    -0.32  -0.22   0.00
                     31                     32                     33
                        a                      a                      a 
 Frequencies --  1275.1755              1345.2138              1357.1787
 Red. masses --    10.3099                11.2591                 3.3761
 Frc consts  --     0.0000                 0.0000                 0.0000
 IR Inten    --   909.9169                20.3624                47.7942
 Raman Activ --     0.0000                 0.0000                 0.0000
 Depolar     --     0.0000                 0.0000                 0.0000
 Atom AN      X      Y      Z        X      Y      Z        X      Y      Z
   1   6     0.44  -0.08  -0.00    -0.02  -0.49   0.00     0.01  -0.05  -0.00
   2   6     0.15   0.12  -0.00    -0.31   0.21  -0.00    -0.04   0.01  -0.00
   3   6    -0.14   0.09  -0.00     0.26   0.19   0.00     0.06   0.03   0.00
   4   6    -0.53   0.00  -0.00     0.04  -0.47   0.00     0.01  -0.04   0.00
   5   6    -0.21  -0.04   0.00    -0.25   0.20  -0.00    -0.04   0.02  -0.00
   6   6     0.12  -0.11   0.00     0.25   0.21  -0.00     0.03   0.02   0.00
   7   8     0.28  -0.02   0.00     0.04   0.07  -0.00    -0.01   0.00  -0.00
   8   1     0.15   0.05  -0.00    -0.18  -0.08   0.00    -0.01  -0.00   0.00
   9   1     0.08   0.02  -0.00    -0.04   0.03  -0.00    -0.01   0.00  -0.00
  10   1    -0.14  -0.02  -0.00     0.08   0.06  -0.00    -0.02  -0.01  -0.00
  11   1    -0.03  -0.04  -0.00    -0.06   0.05  -0.00    -0.00   0.00   0.00
  12   6    -0.32   0.10   0.00     0.02  -0.00  -0.00    -0.05   0.02   0.00
  13   8     0.00  -0.05  -0.00     0.03   0.03   0.00     0.01   0.02   0.00
  14   6     0.06  -0.01   0.00    -0.05   0.05  -0.00     0.18  -0.41   0.00
  15   1    -0.01   0.02   0.01     0.04  -0.04  -0.02    -0.23   0.42   0.25
  16   1    -0.01   0.02  -0.01     0.04  -0.04   0.02    -0.23   0.42  -0.25
  17   1     0.05  -0.13  -0.00     0.00  -0.05   0.00    -0.10   0.43  -0.00
  18   1     0.30   0.13  -0.00     0.05   0.05   0.00     0.01   0.00  -0.00
                     34                     35                     36
                        a                      a                      a 
 Frequencies --  1422.1794              1444.6125              1453.7472
 Red. masses --    10.3005                 2.1797                 1.6135
 Frc consts  --     0.0000                 0.0000                 0.0000
 IR Inten    --    30.2408                54.8120                11.8095
 Raman Activ --     0.0000                 0.0000                 0.0000
 Depolar     --     0.0000                 0.0000                 0.0000
 Atom AN      X      Y      Z        X      Y      Z        X      Y      Z
   1   6    -0.04   0.32  -0.00     0.05   0.07   0.00     0.00   0.00  -0.01
   2   6    -0.33  -0.14  -0.00    -0.07   0.02  -0.00    -0.00   0.00   0.00
   3   6     0.42   0.00   0.00     0.01  -0.05   0.00    -0.00  -0.00   0.00
   4   6    -0.05   0.26  -0.00     0.09   0.02   0.00     0.00   0.00   0.00
   5   6    -0.43  -0.06  -0.00    -0.06   0.03  -0.00    -0.00   0.00   0.00
   6   6     0.40  -0.07   0.00    -0.01  -0.05   0.00    -0.00  -0.00  -0.00
   7   8    -0.00  -0.08   0.00    -0.03  -0.01  -0.00    -0.00  -0.00  -0.00
   8   1     0.12   0.04   0.00    -0.00  -0.00   0.00    -0.00  -0.00  -0.00
   9   1     0.07  -0.13   0.00     0.06  -0.04   0.00     0.00  -0.00  -0.00
  10   1    -0.14  -0.17   0.00     0.03   0.00   0.00     0.00   0.00  -0.00
  11   1     0.12  -0.15   0.00     0.05  -0.03   0.00     0.00  -0.00  -0.00
  12   6     0.05  -0.01   0.00     0.03   0.06   0.00     0.00   0.00   0.03
  13   8    -0.04  -0.04  -0.00    -0.05  -0.10  -0.00    -0.00  -0.00   0.00
  14   6     0.02   0.02  -0.00    -0.23  -0.02  -0.00    -0.00   0.00   0.23
  15   1    -0.03  -0.05  -0.04     0.40   0.31   0.31    -0.44   0.01  -0.08
  16   1    -0.03  -0.05   0.04     0.40   0.31  -0.31     0.44  -0.01  -0.08
  17   1    -0.00   0.03   0.00     0.08  -0.42   0.00    -0.00  -0.00  -0.73
  18   1    -0.08  -0.14   0.00    -0.04  -0.04  -0.00    -0.00  -0.00   0.01
                     37                     38                     39
                        a                      a                      a 
 Frequencies --  1481.4242              1563.9802              1580.1088
 Red. masses --     9.5432                11.6024                11.6691
 Frc consts  --     0.0000                 0.0000                 0.0000
 IR Inten    --    35.4144                13.1755               700.2632
 Raman Activ --     0.0000                 0.0000                 0.0000
 Depolar     --     0.0000                 0.0000                 0.0000
 Atom AN      X      Y      Z        X      Y      Z        X      Y      Z
   1   6     0.39   0.04  -0.00     0.01  -0.49   0.00    -0.19  -0.05   0.00
   2   6    -0.25   0.21  -0.00    -0.18   0.27  -0.00     0.43  -0.07   0.00
   3   6    -0.14  -0.25   0.00    -0.09  -0.30   0.00    -0.44  -0.12  -0.00
   4   6     0.45   0.05   0.00    -0.01   0.55  -0.00     0.20  -0.01   0.00
   5   6    -0.21   0.21  -0.00     0.11  -0.29   0.00    -0.42   0.09  -0.00
   6   6    -0.19  -0.24   0.00     0.17   0.29  -0.00     0.40   0.12  -0.00
   7   8    -0.15  -0.01  -0.00    -0.03  -0.06   0.00     0.01   0.01  -0.00
   8   1    -0.04  -0.01   0.00     0.10   0.05  -0.00    -0.03  -0.02   0.00
   9   1     0.22  -0.10   0.00     0.08  -0.00  -0.00    -0.06   0.08  -0.00
  10   1     0.20   0.07   0.00     0.08  -0.02   0.00     0.08   0.09  -0.00
  11   1     0.21  -0.08   0.00    -0.06  -0.03  -0.00     0.07  -0.08   0.00
  12   6    -0.11   0.03  -0.00    -0.03  -0.03  -0.00     0.10   0.26   0.00
  13   8    -0.01  -0.02  -0.00     0.04   0.05   0.00    -0.08  -0.18  -0.00
  14   6     0.05   0.00  -0.00    -0.01  -0.00   0.00     0.01  -0.04  -0.00
  15   1    -0.08  -0.05  -0.05     0.01   0.01   0.01    -0.00  -0.02  -0.01
  16   1    -0.08  -0.05   0.06     0.01   0.01  -0.01    -0.00  -0.02   0.01
  17   1    -0.01   0.05   0.00    -0.00  -0.00  -0.00    -0.01   0.04   0.00
  18   1     0.22   0.09  -0.00    -0.10  -0.01   0.00    -0.05  -0.07   0.00
                     40                     41                     42
                        a                      a                      a 
 Frequencies --  1647.9970              3035.2806              3038.0746
 Red. masses --    13.0177                 1.9580                 1.4501
 Frc consts  --     0.0000                 0.0000                 0.0000
 IR Inten    --   455.0602                 5.9549                 4.1480
 Raman Activ --     0.0000                 0.0000                 0.0000
 Depolar     --     0.0000                 0.0000                 0.0000
 Atom AN      X      Y      Z        X      Y      Z        X      Y      Z
   1   6    -0.05   0.07  -0.00     0.00   0.00  -0.00     0.00   0.00   0.00
   2   6     0.15  -0.07   0.00     0.00   0.00   0.00     0.00   0.00  -0.00
   3   6    -0.14  -0.03  -0.00    -0.00   0.00  -0.00    -0.00   0.00  -0.00
   4   6     0.11  -0.02   0.00    -0.00   0.00  -0.00    -0.00   0.00   0.00
   5   6    -0.18   0.05  -0.00    -0.00  -0.00  -0.00    -0.00  -0.00   0.00
   6   6     0.16   0.03  -0.00    -0.00   0.00  -0.00    -0.00   0.00   0.00
   7   8    -0.02   0.00  -0.00    -0.00  -0.00   0.00    -0.00  -0.00  -0.00
   8   1    -0.01  -0.00  -0.00     0.00   0.00   0.00     0.00   0.00  -0.00
   9   1    -0.04   0.02   0.00    -0.00  -0.00  -0.00    -0.00  -0.00   0.00
  10   1     0.01   0.02   0.00     0.00  -0.00  -0.00     0.00  -0.00   0.00
  11   1     0.03  -0.03  -0.00     0.00   0.00   0.00     0.00   0.00  -0.00
  12   6    -0.31  -0.66  -0.00    -0.00  -0.00   0.01    -0.00  -0.01  -0.00
  13   8     0.24   0.50   0.00     0.00   0.00  -0.00     0.00   0.00   0.00
  14   6    -0.01   0.06   0.00    -0.00  -0.00   0.29    -0.06  -0.19  -0.01
  15   1     0.01   0.05   0.03     0.16   0.39  -0.55     0.14   0.35  -0.56
  16   1     0.01   0.05  -0.03    -0.15  -0.37  -0.53     0.15   0.36   0.59
  17   1     0.02  -0.09  -0.00    -0.00  -0.00   0.04    -0.06  -0.03  -0.00
  18   1    -0.02  -0.03   0.00     0.00  -0.00  -0.00     0.01  -0.01   0.00
                     43                     44                     45
                        a                      a                      a 
 Frequencies --  3052.9952              3076.4587              3091.4727
 Red. masses --     1.7579                 1.7996                 1.8654
 Frc consts  --     0.0000                 0.0000                 0.0000
 IR Inten    --    31.9029                36.7483                52.2680
 Raman Activ --     0.0000                 0.0000                 0.0000
 Depolar     --     0.0000                 0.0000                 0.0000
 Atom AN      X      Y      Z        X      Y      Z        X      Y      Z
   1   6    -0.00  -0.00   0.00     0.00   0.00  -0.00    -0.01  -0.00   0.00
   2   6    -0.00  -0.00   0.00     0.05   0.08  -0.00    -0.12  -0.22   0.00
   3   6     0.00  -0.00   0.00     0.13  -0.21   0.00     0.06  -0.09   0.00
   4   6    -0.00   0.00  -0.00     0.01  -0.00   0.00     0.01   0.00  -0.00
   5   6     0.00   0.00  -0.00    -0.01  -0.01   0.00    -0.00  -0.01   0.00
   6   6     0.00  -0.00   0.00    -0.00   0.00  -0.00     0.01  -0.01   0.00
   7   8     0.00   0.00  -0.00    -0.00   0.00  -0.00    -0.00   0.00  -0.00
   8   1    -0.00  -0.00  -0.00    -0.00  -0.01   0.00    -0.00  -0.00   0.00
   9   1     0.00   0.01  -0.00    -0.17  -0.32   0.00     0.42   0.78  -0.00
  10   1    -0.00   0.01  -0.00    -0.47   0.76  -0.00    -0.19   0.31  -0.00
  11   1    -0.00  -0.00   0.00     0.02   0.03  -0.00     0.01   0.02  -0.00
  12   6     0.01   0.00   0.00    -0.00  -0.00   0.00    -0.00  -0.00  -0.00
  13   8    -0.00  -0.00   0.00     0.00  -0.00  -0.00     0.00   0.00   0.00
  14   6     0.25   0.07   0.00    -0.00  -0.00  -0.00    -0.00  -0.00   0.00
  15   1     0.02  -0.01   0.03     0.00   0.00  -0.00     0.00   0.00  -0.00
  16   1     0.02  -0.01  -0.03     0.00   0.00   0.00     0.00   0.00   0.00
  17   1    -0.93  -0.24   0.00     0.00   0.00  -0.00     0.01   0.00  -0.00
  18   1    -0.00   0.00  -0.00     0.00  -0.00   0.00    -0.01   0.02  -0.00
                     46                     47                     48
                        a                      a                      a 
 Frequencies --  3105.4510              3119.5879              3430.2621
 Red. masses --     1.7964                 1.8706                 1.8638
 Frc consts  --     0.0000                 0.0000                 0.0000
 IR Inten    --    18.9217                32.9828               201.6205
 Raman Activ --     0.0000                 0.0000                 0.0000
 Depolar     --     0.0000                 0.0000                 0.0000
 Atom AN      X      Y      Z        X      Y      Z        X      Y      Z
   1   6    -0.00   0.00  -0.00    -0.01  -0.00   0.00     0.00  -0.00   0.00
   2   6     0.00  -0.00   0.00    -0.00  -0.01   0.00    -0.00   0.00  -0.00
   3   6    -0.00   0.01  -0.00     0.00  -0.01   0.00     0.00   0.00  -0.00
   4   6    -0.01  -0.00   0.00     0.01  -0.00   0.00    -0.01   0.00  -0.00
   5   6    -0.12  -0.22   0.00     0.06   0.10  -0.00     0.00   0.00   0.00
   6   6    -0.05   0.09  -0.00    -0.13   0.22  -0.00    -0.00   0.00  -0.00
   7   8     0.00   0.00  -0.00    -0.00  -0.00   0.00    -0.10   0.22  -0.00
   8   1     0.00  -0.01   0.00    -0.00   0.00  -0.00     0.44  -0.86   0.00
   9   1     0.00   0.00  -0.00     0.01   0.03  -0.00     0.00   0.00  -0.00
  10   1     0.02  -0.03   0.00    -0.01   0.02  -0.00     0.00  -0.01   0.00
  11   1     0.42   0.77  -0.00    -0.18  -0.34   0.00    -0.00  -0.01   0.00
  12   6     0.00   0.00   0.00    -0.00   0.00   0.00    -0.00  -0.00  -0.00
  13   8    -0.00  -0.00  -0.00     0.00   0.00   0.00     0.00   0.00   0.00
  14   6     0.00   0.00   0.00     0.00   0.00   0.00     0.00  -0.00   0.00
  15   1    -0.00  -0.00   0.01    -0.00  -0.01   0.01     0.00   0.00   0.00
  16   1    -0.00  -0.00  -0.01    -0.00  -0.01  -0.01     0.00   0.00  -0.00
  17   1    -0.00  -0.00   0.00    -0.00  -0.00   0.00     0.00  -0.00  -0.00
  18   1     0.21  -0.33   0.00     0.46  -0.75   0.00    -0.00  -0.00   0.00
