      -----------------------------------------------------------      
     |                   =====================                   |     
     |                           x T B                           |     
     |                   =====================                   |     
     |                         S. Grimme                         |     
     |          Mulliken Center for Theoretical Chemistry        |     
     |                    University of Bonn                     |     
      -----------------------------------------------------------      

   * xtb version 6.4.1 (afa7bdf) compiled by 'ehlert@majestix' on 2021-06-10

   xtb is free software: you can redistribute it and/or modify it under
   the terms of the GNU Lesser General Public License as published by
   the Free Software Foundation, either version 3 of the License, or
   (at your option) any later version.
   
   xtb is distributed in the hope that it will be useful,
   but WITHOUT ANY WARRANTY; without even the implied warranty of
   MERCHANTABILITY or FITNESS FOR A PARTICULAR PURPOSE.  See the
   GNU Lesser General Public License for more details.
   
   Cite this work as:
   * C. Bannwarth, E. Caldeweyher, S. Ehlert, A. Hansen, P. Pracht,
     J. Seibert, S. Spicher, S. Grimme, WIREs Comput. Mol. Sci., 2020, 11,
     e01493. DOI: 10.1002/wcms.1493
   
   for GFN2-xTB:
   * C. Bannwarth, S. Ehlert and S. Grimme., J. Chem. Theory Comput., 2019,
     15, 1652-1671. DOI: 10.1021/acs.jctc.8b01176
   for GFN1-xTB:
   * S. Grimme, C. Bannwarth, P. Shushkov, J. Chem. Theory Comput., 2017,
     13, 1989-2009. DOI: 10.1021/acs.jctc.7b00118
   for GFN0-xTB:
   * P. Pracht, E. Caldeweyher, S. Ehlert, S. Grimme, ChemRxiv, 2019, preprint.
     DOI: 10.26434/chemrxiv.8326202.v1
   for GFN-FF:
   * S. Spicher and S. Grimme, Angew. Chem. Int. Ed., 2020, 59, 15665-15673.
     DOI: 10.1002/anie.202004239
   
   for DFT-D4:
   * E. Caldeweyher, C. Bannwarth and S. Grimme, J. Chem. Phys., 2017,
     147, 034112. DOI: 10.1063/1.4993215
   * E. Caldeweyher, S. Ehlert, A. Hansen, H. Neugebauer, S. Spicher,
     C. Bannwarth and S. Grimme, J. Chem. Phys., 2019, 150, 154122.
     DOI: 10.1063/1.5090222
   * E. Caldeweyher, J.-M. Mewes, S. Ehlert and S. Grimme, Phys. Chem. Chem. Phys.
     2020, 22, 8499-8512. DOI: 10.1039/D0CP00502A
   
   for sTDA-xTB:
   * S. Grimme and C. Bannwarth, J. Chem. Phys., 2016, 145, 054103.
     DOI: 10.1063/1.4959605
   
   in the mass-spec context:
   * V. Asgeirsson, C. Bauer and S. Grimme, Chem. Sci., 2017, 8, 4879.
     DOI: 10.1039/c7sc00601b
   * J. Koopman and S. Grimme, ACS Omega 2019, 4, 12, 15120-15133.
     DOI: 10.1021/acsomega.9b02011
   
   for metadynamics refer to:
   * S. Grimme, J. Chem. Theory Comput., 2019, 155, 2847-2862
     DOI: 10.1021/acs.jctc.9b00143
   
   for SPH calculations refer to:
   * S. Spicher and S. Grimme, J. Chem. Theory Comput., 2021, 17, 1701-1714
     DOI: 10.1021/acs.jctc.0c01306
   
   with help from (in alphabetical order)
   P. Atkinson, C. Bannwarth, F. Bohle, G. Brandenburg, E. Caldeweyher
   M. Checinski, S. Dohm, S. Ehlert, S. Ehrlich, I. Gerasimov, J. Koopman
   C. Lavigne, S. Lehtola, F. März, M. Müller, F. Musil, H. Neugebauer
   J. Pisarek, C. Plett, P. Pracht, J. Seibert, P. Shushkov, S. Spicher
   M. Stahn, M. Steiner, T. Strunk, J. Stückrath, T. Rose, and J. Unsleber
   
 * started run on 2021/11/15 at 09:23:08.709     

           -------------------------------------------------
          |                Calculation Setup                |
           -------------------------------------------------

          program call               : xtb 17_2-phenylphenol.xyz --gfn2 --chrg 0 --uhf 0 --alpb water -P 1
          coordinate file            : 17_2-phenylphenol.xyz
          omp threads                :                     1
          number of atoms            :                    23
          number of electrons        :                    64
          charge                     :                     0
          spin                       :                   0.0
          first test random number   :      0.42442609140473

   ID    Z sym.   atoms
    1    6 C      1-6, 13-16, 18, 20
    2    1 H      7, 9-12, 17, 19, 21-23
    3    8 O      8

           -------------------------------------------------
          |                 G F N 2 - x T B                 |
           -------------------------------------------------

        Reference                      10.1021/acs.jctc.8b01176
      * Hamiltonian:
        H0-scaling (s, p, d)           1.850000    2.230000    2.230000
        zeta-weighting                 0.500000
      * Dispersion:
        s8                             2.700000
        a1                             0.520000
        a2                             5.000000
        s9                             5.000000
      * Repulsion:
        kExp                           1.500000    1.000000
        rExp                           1.000000
      * Coulomb:
        alpha                          2.000000
        third order                    shell-resolved
        anisotropic                    true
        a3                             3.000000
        a5                             4.000000
        cn-shift                       1.200000
        cn-exp                         4.000000
        max-rad                        5.000000

      * Solvation model:               ALPB
        Solvent                        water
        Parameter file                 internal GFN2-xTB/ALPB
        Dielectric constant                8.0200E+01
        Reference state                gsolv [1 M gas/solution]
        Free energy shift                  1.0808E-03 Eh       6.7819E-01 kcal/mol
        Temperature                        2.9815E+02 K
        Density                            1.0000E+00 kg/L
        Solvent mass                       1.8000E+01 g/mol
        Interaction kernel             P16
        Born radius scaling (c1)           1.4744E+00
        Born radii integrator          GBOBC
        Born offset                        0.0000E+00 a0       0.0000E+00 AA
        H-bond correction              true
        Ion screening                  false
        Surface tension                    1.0000E-05 Eh       1.5569E+01 dyn/cm
        Grid points                               230 per atom
q/qsh data taken from xtbrestart
CAMM data taken from xtbrestart

          ...................................................
          :                      SETUP                      :
          :.................................................:
          :  # basis functions                  62          :
          :  # atomic orbitals                  62          :
          :  # shells                           36          :
          :  # electrons                        64          :
          :  max. iterations                   250          :
          :  Hamiltonian                  GFN2-xTB          :
          :  restarted?                       true          :
          :  GBSA solvation                   true          :
          :  PC potential                    false          :
          :  electronic temp.          300.0000000     K    :
          :  accuracy                    1.0000000          :
          :  -> integral cutoff          0.2500000E+02      :
          :  -> integral neglect         0.1000000E-07      :
          :  -> SCF convergence          0.1000000E-05 Eh   :
          :  -> wf. convergence          0.1000000E-03 e    :
          :  Broyden damping             0.4000000          :
          ...................................................

 iter      E             dE          RMSdq      gap      omega  full diag
   1    -35.4313805 -0.354314E+02  0.222E-04    3.61       0.0  T
   2    -35.4313805 -0.270653E-09  0.131E-04    3.61     158.6  T
   3    -35.4313805 -0.897700E-10  0.860E-05    3.61     242.4  T

   *** convergence criteria satisfied after 3 iterations ***

         #    Occupation            Energy/Eh            Energy/eV
      -------------------------------------------------------------
         1        2.0000           -0.7065527             -19.2263
       ...           ...                  ...                  ...
        26        2.0000           -0.4317026             -11.7472
        27        2.0000           -0.4252894             -11.5727
        28        2.0000           -0.4160701             -11.3218
        29        2.0000           -0.4113267             -11.1928
        30        2.0000           -0.4054067             -11.0317
        31        2.0000           -0.3928864             -10.6910
        32        2.0000           -0.3773308             -10.2677 (HOMO)
        33                         -0.2447630              -6.6603 (LUMO)
        34                         -0.2277582              -6.1976
        35                         -0.2171756              -5.9096
        36                         -0.2045131              -5.5651
        37                         -0.1073019              -2.9198
       ...                                ...                  ...
        62                          0.6596151              17.9490
      -------------------------------------------------------------
                  HL-Gap            0.1325678 Eh            3.6074 eV
             Fermi-level           -0.3110469 Eh           -8.4640 eV

 SCC (total)                   0 d,  0 h,  0 min,  0.013 sec
 SCC setup                      ...        0 min,  0.001 sec (  4.569%)
 Dispersion                     ...        0 min,  0.000 sec (  1.610%)
 classical contributions        ...        0 min,  0.000 sec (  0.249%)
 integral evaluation            ...        0 min,  0.003 sec ( 20.796%)
 iterations                     ...        0 min,  0.004 sec ( 28.307%)
 molecular gradient             ...        0 min,  0.006 sec ( 42.699%)
 printout                       ...        0 min,  0.000 sec (  1.556%)

         :::::::::::::::::::::::::::::::::::::::::::::::::::::
         ::                     SUMMARY                     ::
         :::::::::::::::::::::::::::::::::::::::::::::::::::::
         :: total energy             -34.844671320807 Eh    ::
         :: total w/o Gsasa/hb       -34.841313069763 Eh    ::
         :: gradient norm              0.022712302511 Eh/a0 ::
         :: HOMO-LUMO gap              3.607353723387 eV    ::
         ::.................................................::
         :: SCC energy               -35.431380462946 Eh    ::
         :: -> isotropic ES            0.027359118493 Eh    ::
         :: -> anisotropic ES          0.003771310475 Eh    ::
         :: -> anisotropic XC          0.019281231274 Eh    ::
         :: -> dispersion             -0.022385217616 Eh    ::
         :: -> Gsolv                  -0.006521993853 Eh    ::
         ::    -> Gelec               -0.003163742809 Eh    ::
         ::    -> Gsasa               -0.000880935059 Eh    ::
         ::    -> Ghb                 -0.003558075683 Eh    ::
         ::    -> Gshift               0.001080759698 Eh    ::
         :: repulsion energy           0.586674039775 Eh    ::
         :: add. restraining           0.000000000000 Eh    ::
         :: total charge               0.000000000000 e     ::
         :::::::::::::::::::::::::::::::::::::::::::::::::::::

           -------------------------------------------------
          |                Property Printout                |
           -------------------------------------------------

    * Orbital Energies and Occupations

         #    Occupation            Energy/Eh            Energy/eV
      -------------------------------------------------------------
         1        2.0000           -0.7065527             -19.2263
       ...           ...                  ...                  ...
        20        2.0000           -0.4812209             -13.0947
        21        2.0000           -0.4775181             -12.9939
        22        2.0000           -0.4745458             -12.9130
        23        2.0000           -0.4717518             -12.8370
        24        2.0000           -0.4564385             -12.4203
        25        2.0000           -0.4426133             -12.0441
        26        2.0000           -0.4317026             -11.7472
        27        2.0000           -0.4252894             -11.5727
        28        2.0000           -0.4160701             -11.3218
        29        2.0000           -0.4113267             -11.1928
        30        2.0000           -0.4054067             -11.0317
        31        2.0000           -0.3928864             -10.6910
        32        2.0000           -0.3773308             -10.2677 (HOMO)
        33                         -0.2447630              -6.6603 (LUMO)
        34                         -0.2277582              -6.1976
        35                         -0.2171756              -5.9096
        36                         -0.2045131              -5.5651
        37                         -0.1073019              -2.9198
        38                         -0.0831707              -2.2632
        39                          0.0679114               1.8480
        40                          0.0788109               2.1446
        41                          0.1139647               3.1011
        42                          0.1381945               3.7605
        43                          0.1444210               3.9299
       ...                                ...                  ...
        62                          0.6596151              17.9490
      -------------------------------------------------------------
                  HL-Gap            0.1325678 Eh            3.6074 eV
             Fermi-level           -0.3110469 Eh           -8.4640 eV

     #   Z          covCN         q      C6AA      α(0)
     1   6 C        2.909    -0.048    29.194     8.860
     2   6 C        2.915    -0.038    28.938     8.821
     3   6 C        2.911    -0.061    29.522     8.910
     4   6 C        2.844     0.139    24.970     8.189
     5   6 C        2.964    -0.029    28.713     8.789
     6   6 C        2.920    -0.040    28.991     8.830
     7   1 H        0.925     0.040     2.450     2.447
     8   8 O        1.659    -0.450    21.834     6.308
     9   1 H        0.805     0.348     0.593     1.210
    10   1 H        0.925     0.042     2.425     2.435
    11   1 H        0.925     0.048     2.341     2.392
    12   1 H        0.925     0.040     2.446     2.446
    13   6 C        2.965     0.008    27.835     8.654
    14   6 C        2.917    -0.038    28.942     8.822
    15   6 C        2.916    -0.046    29.140     8.852
    16   6 C        2.911    -0.034    28.844     8.807
    17   1 H        0.925     0.037     2.495     2.470
    18   6 C        2.911    -0.035    28.882     8.812
    19   1 H        0.925     0.040     2.450     2.448
    20   6 C        2.912    -0.036    28.892     8.814
    21   1 H        0.925     0.038     2.482     2.464
    22   1 H        0.925     0.038     2.472     2.459
    23   1 H        0.925     0.037     2.490     2.468

 Mol. C6AA /au·bohr⁶  :       6985.214868
 Mol. C8AA /au·bohr⁸  :     174034.951772
 Mol. α(0) /au        :        134.706507


Wiberg/Mayer (AO) data.
largest (>0.10) Wiberg bond orders for each atom

 ---------------------------------------------------------------------------
     #   Z sym  total        # sym  WBO       # sym  WBO       # sym  WBO
 ---------------------------------------------------------------------------
     1   6 C    3.990 --     6 C    1.448     2 C    1.424    12 H    0.970
     2   6 C    3.986 --     3 C    1.451     1 C    1.424    10 H    0.971
                             5 C    0.101
     3   6 C    3.987 --     2 C    1.451     4 C    1.377    11 H    0.968
                             6 C    0.105
     4   6 C    3.936 --     3 C    1.377     5 C    1.330     8 O    1.067
     5   6 C    3.984 --     6 C    1.395     4 C    1.330    13 C    1.038
                             2 C    0.101
     6   6 C    3.990 --     1 C    1.448     5 C    1.395     7 H    0.969
                             3 C    0.105
     7   1 H    0.998 --     6 C    0.969
     8   8 O    2.082 --     4 C    1.067     9 H    0.847
     9   1 H    0.879 --     8 O    0.847
    10   1 H    0.998 --     2 C    0.971
    11   1 H    0.997 --     3 C    0.968
    12   1 H    0.998 --     1 C    0.970
    13   6 C    3.988 --    15 C    1.391    14 C    1.387     5 C    1.038
                            20 C    0.106
    14   6 C    3.991 --    16 C    1.454    13 C    1.387    17 H    0.969
                            18 C    0.110
    15   6 C    3.990 --    18 C    1.443    13 C    1.391    19 H    0.967
                            16 C    0.108
    16   6 C    3.991 --    14 C    1.454    20 C    1.431    21 H    0.970
                            15 C    0.108
    17   1 H    0.999 --    14 C    0.969
    18   6 C    3.991 --    15 C    1.443    20 C    1.439    22 H    0.970
                            14 C    0.110
    19   1 H    0.998 --    15 C    0.967
    20   6 C    3.987 --    18 C    1.439    16 C    1.431    23 H    0.971
                            13 C    0.106
    21   1 H    0.998 --    16 C    0.970
    22   1 H    0.998 --    18 C    0.970
    23   1 H    0.998 --    20 C    0.971
 ---------------------------------------------------------------------------

Topologies differ in total number of bonds
Writing topology from bond orders to xtbtopo.mol

molecular dipole:
                 x           y           z       tot (Debye)
 q only:        0.528      -0.274      -0.023
   full:        0.703      -0.348      -0.037       1.997
molecular quadrupole (traceless):
                xx          xy          yy          xz          yz          zz
 q only:        2.594       3.829      -1.149       1.130      -1.052      -1.445
  q+dip:        6.269       4.017      -0.492       1.223      -3.038      -5.777
   full:        3.777       4.291      -1.424       1.287      -1.948      -2.353


           -------------------------------------------------
          | TOTAL ENERGY              -34.844671320807 Eh   |
          | GRADIENT NORM               0.022712302511 Eh/α |
          | HOMO-LUMO GAP               3.607353723387 eV   |
           -------------------------------------------------

------------------------------------------------------------------------
 * finished run on 2021/11/15 at 09:23:08.754     
------------------------------------------------------------------------
 total:
 * wall-time:     0 d,  0 h,  0 min,  0.045 sec
 *  cpu-time:     0 d,  0 h,  0 min,  0.047 sec
 * ratio c/w:     1.039 speedup
 SCF:
 * wall-time:     0 d,  0 h,  0 min,  0.013 sec
 *  cpu-time:     0 d,  0 h,  0 min,  0.016 sec
 * ratio c/w:     1.183 speedup

