      -----------------------------------------------------------      
     |                   =====================                   |     
     |                           x T B                           |     
     |                   =====================                   |     
     |                         S. Grimme                         |     
     |          Mulliken Center for Theoretical Chemistry        |     
     |                    University of Bonn                     |     
      -----------------------------------------------------------      

   * xtb version 6.4.1 (afa7bdf) compiled by 'ehlert@majestix' on 2021-06-10

   xtb is free software: you can redistribute it and/or modify it under
   the terms of the GNU Lesser General Public License as published by
   the Free Software Foundation, either version 3 of the License, or
   (at your option) any later version.
   
   xtb is distributed in the hope that it will be useful,
   but WITHOUT ANY WARRANTY; without even the implied warranty of
   MERCHANTABILITY or FITNESS FOR A PARTICULAR PURPOSE.  See the
   GNU Lesser General Public License for more details.
   
   Cite this work as:
   * C. Bannwarth, E. Caldeweyher, S. Ehlert, A. Hansen, P. Pracht,
     J. Seibert, S. Spicher, S. Grimme, WIREs Comput. Mol. Sci., 2020, 11,
     e01493. DOI: 10.1002/wcms.1493
   
   for GFN2-xTB:
   * C. Bannwarth, S. Ehlert and S. Grimme., J. Chem. Theory Comput., 2019,
     15, 1652-1671. DOI: 10.1021/acs.jctc.8b01176
   for GFN1-xTB:
   * S. Grimme, C. Bannwarth, P. Shushkov, J. Chem. Theory Comput., 2017,
     13, 1989-2009. DOI: 10.1021/acs.jctc.7b00118
   for GFN0-xTB:
   * P. Pracht, E. Caldeweyher, S. Ehlert, S. Grimme, ChemRxiv, 2019, preprint.
     DOI: 10.26434/chemrxiv.8326202.v1
   for GFN-FF:
   * S. Spicher and S. Grimme, Angew. Chem. Int. Ed., 2020, 59, 15665-15673.
     DOI: 10.1002/anie.202004239
   
   for DFT-D4:
   * E. Caldeweyher, C. Bannwarth and S. Grimme, J. Chem. Phys., 2017,
     147, 034112. DOI: 10.1063/1.4993215
   * E. Caldeweyher, S. Ehlert, A. Hansen, H. Neugebauer, S. Spicher,
     C. Bannwarth and S. Grimme, J. Chem. Phys., 2019, 150, 154122.
     DOI: 10.1063/1.5090222
   * E. Caldeweyher, J.-M. Mewes, S. Ehlert and S. Grimme, Phys. Chem. Chem. Phys.
     2020, 22, 8499-8512. DOI: 10.1039/D0CP00502A
   
   for sTDA-xTB:
   * S. Grimme and C. Bannwarth, J. Chem. Phys., 2016, 145, 054103.
     DOI: 10.1063/1.4959605
   
   in the mass-spec context:
   * V. Asgeirsson, C. Bauer and S. Grimme, Chem. Sci., 2017, 8, 4879.
     DOI: 10.1039/c7sc00601b
   * J. Koopman and S. Grimme, ACS Omega 2019, 4, 12, 15120-15133.
     DOI: 10.1021/acsomega.9b02011
   
   for metadynamics refer to:
   * S. Grimme, J. Chem. Theory Comput., 2019, 155, 2847-2862
     DOI: 10.1021/acs.jctc.9b00143
   
   for SPH calculations refer to:
   * S. Spicher and S. Grimme, J. Chem. Theory Comput., 2021, 17, 1701-1714
     DOI: 10.1021/acs.jctc.0c01306
   
   with help from (in alphabetical order)
   P. Atkinson, C. Bannwarth, F. Bohle, G. Brandenburg, E. Caldeweyher
   M. Checinski, S. Dohm, S. Ehlert, S. Ehrlich, I. Gerasimov, J. Koopman
   C. Lavigne, S. Lehtola, F. März, M. Müller, F. Musil, H. Neugebauer
   J. Pisarek, C. Plett, P. Pracht, J. Seibert, P. Shushkov, S. Spicher
   M. Stahn, M. Steiner, T. Strunk, J. Stückrath, T. Rose, and J. Unsleber
   
 * started run on 2021/11/15 at 09:23:08.350     

           -------------------------------------------------
          |                Calculation Setup                |
           -------------------------------------------------

          program call               : xtb 13_2,4,6-trichlorophenol.xyz --gfn2 --chrg 0 --uhf 0 --alpb water -P 1
          coordinate file            : 13_2,4,6-trichlorophenol.xyz
          omp threads                :                     1
          number of atoms            :                    13
          number of electrons        :                    54
          charge                     :                     0
          spin                       :                   0.0
          first test random number   :      0.42442609140473

   ID    Z sym.   atoms
    1    6 C      1-6
    2    1 H      7, 8, 10
    3    8 O      9
    4   17 Cl     11-13

           -------------------------------------------------
          |                 G F N 2 - x T B                 |
           -------------------------------------------------

        Reference                      10.1021/acs.jctc.8b01176
      * Hamiltonian:
        H0-scaling (s, p, d)           1.850000    2.230000    2.230000
        zeta-weighting                 0.500000
      * Dispersion:
        s8                             2.700000
        a1                             0.520000
        a2                             5.000000
        s9                             5.000000
      * Repulsion:
        kExp                           1.500000    1.000000
        rExp                           1.000000
      * Coulomb:
        alpha                          2.000000
        third order                    shell-resolved
        anisotropic                    true
        a3                             3.000000
        a5                             4.000000
        cn-shift                       1.200000
        cn-exp                         4.000000
        max-rad                        5.000000

      * Solvation model:               ALPB
        Solvent                        water
        Parameter file                 internal GFN2-xTB/ALPB
        Dielectric constant                8.0200E+01
        Reference state                gsolv [1 M gas/solution]
        Free energy shift                  1.0808E-03 Eh       6.7819E-01 kcal/mol
        Temperature                        2.9815E+02 K
        Density                            1.0000E+00 kg/L
        Solvent mass                       1.8000E+01 g/mol
        Interaction kernel             P16
        Born radius scaling (c1)           1.4744E+00
        Born radii integrator          GBOBC
        Born offset                        0.0000E+00 a0       0.0000E+00 AA
        H-bond correction              true
        Ion screening                  false
        Surface tension                    1.0000E-05 Eh       1.5569E+01 dyn/cm
        Grid points                               230 per atom
q/qsh data taken from xtbrestart
CAMM data taken from xtbrestart

          ...................................................
          :                      SETUP                      :
          :.................................................:
          :  # basis functions                  61          :
          :  # atomic orbitals                  58          :
          :  # shells                           26          :
          :  # electrons                        54          :
          :  max. iterations                   250          :
          :  Hamiltonian                  GFN2-xTB          :
          :  restarted?                       true          :
          :  GBSA solvation                   true          :
          :  PC potential                    false          :
          :  electronic temp.          300.0000000     K    :
          :  accuracy                    1.0000000          :
          :  -> integral cutoff          0.2500000E+02      :
          :  -> integral neglect         0.1000000E-07      :
          :  -> SCF convergence          0.1000000E-05 Eh   :
          :  -> wf. convergence          0.1000000E-03 e    :
          :  Broyden damping             0.4000000          :
          ...................................................

 iter      E             dE          RMSdq      gap      omega  full diag
   1    -32.3842771 -0.323843E+02  0.341E-04    3.69       0.0  T
   2    -32.3842771 -0.194582E-09  0.269E-04    3.69     103.2  T
   3    -32.3842771 -0.183455E-09  0.202E-04    3.69     137.4  T

   *** convergence criteria satisfied after 3 iterations ***

         #    Occupation            Energy/Eh            Energy/eV
      -------------------------------------------------------------
         1        2.0000           -1.0750612             -29.2539
       ...           ...                  ...                  ...
        21        2.0000           -0.4677293             -12.7276
        22        2.0000           -0.4446169             -12.0986
        23        2.0000           -0.4345875             -11.8257
        24        2.0000           -0.4332310             -11.7888
        25        2.0000           -0.4283971             -11.6573
        26        2.0000           -0.4150621             -11.2944
        27        2.0000           -0.3975399             -10.8176 (HOMO)
        28                         -0.2619930              -7.1292 (LUMO)
        29                         -0.2509741              -6.8294
        30                         -0.1878190              -5.1108
        31                         -0.1479323              -4.0254
        32                         -0.1429541              -3.8900
       ...                                ...                  ...
        58                          0.5862438              15.9525
      -------------------------------------------------------------
                  HL-Gap            0.1355469 Eh            3.6884 eV
             Fermi-level           -0.3297665 Eh           -8.9734 eV

 SCC (total)                   0 d,  0 h,  0 min,  0.013 sec
 SCC setup                      ...        0 min,  0.000 sec (  2.908%)
 Dispersion                     ...        0 min,  0.000 sec (  0.626%)
 classical contributions        ...        0 min,  0.000 sec (  0.188%)
 integral evaluation            ...        0 min,  0.002 sec ( 18.426%)
 iterations                     ...        0 min,  0.003 sec ( 25.850%)
 molecular gradient             ...        0 min,  0.006 sec ( 49.604%)
 printout                       ...        0 min,  0.000 sec (  2.189%)

         :::::::::::::::::::::::::::::::::::::::::::::::::::::
         ::                     SUMMARY                     ::
         :::::::::::::::::::::::::::::::::::::::::::::::::::::
         :: total energy             -32.108443838787 Eh    ::
         :: total w/o Gsasa/hb       -32.103995777462 Eh    ::
         :: gradient norm              0.020199228474 Eh/a0 ::
         :: HOMO-LUMO gap              3.688418917725 eV    ::
         ::.................................................::
         :: SCC energy               -32.384277125802 Eh    ::
         :: -> isotropic ES            0.034990296596 Eh    ::
         :: -> anisotropic ES         -0.002767917028 Eh    ::
         :: -> anisotropic XC          0.004006836810 Eh    ::
         :: -> dispersion             -0.014874335570 Eh    ::
         :: -> Gsolv                  -0.010501244816 Eh    ::
         ::    -> Gelec               -0.006053183491 Eh    ::
         ::    -> Gsasa               -0.000095238127 Eh    ::
         ::    -> Ghb                 -0.005433582895 Eh    ::
         ::    -> Gshift               0.001080759698 Eh    ::
         :: repulsion energy           0.275791608670 Eh    ::
         :: add. restraining           0.000000000000 Eh    ::
         :: total charge               0.000000000000 e     ::
         :::::::::::::::::::::::::::::::::::::::::::::::::::::

           -------------------------------------------------
          |                Property Printout                |
           -------------------------------------------------

    * Orbital Energies and Occupations

         #    Occupation            Energy/Eh            Energy/eV
      -------------------------------------------------------------
         1        2.0000           -1.0750612             -29.2539
       ...           ...                  ...                  ...
        15        2.0000           -0.5159229             -14.0390
        16        2.0000           -0.5147790             -14.0079
        17        2.0000           -0.5084882             -13.8367
        18        2.0000           -0.4870988             -13.2546
        19        2.0000           -0.4827489             -13.1363
        20        2.0000           -0.4680225             -12.7355
        21        2.0000           -0.4677293             -12.7276
        22        2.0000           -0.4446169             -12.0986
        23        2.0000           -0.4345875             -11.8257
        24        2.0000           -0.4332310             -11.7888
        25        2.0000           -0.4283971             -11.6573
        26        2.0000           -0.4150621             -11.2944
        27        2.0000           -0.3975399             -10.8176 (HOMO)
        28                         -0.2619930              -7.1292 (LUMO)
        29                         -0.2509741              -6.8294
        30                         -0.1878190              -5.1108
        31                         -0.1479323              -4.0254
        32                         -0.1429541              -3.8900
        33                         -0.1365674              -3.7162
        34                         -0.0082566              -0.2247
        35                         -0.0037395              -0.1018
        36                         -0.0017839              -0.0485
        37                          0.0025084               0.0683
        38                          0.0076522               0.2082
       ...                                ...                  ...
        58                          0.5862438              15.9525
      -------------------------------------------------------------
                  HL-Gap            0.1355469 Eh            3.6884 eV
             Fermi-level           -0.3297665 Eh           -8.9734 eV

     #   Z          covCN         q      C6AA      α(0)
     1   6 C        2.890     0.097    25.845     8.335
     2   6 C        2.969    -0.054    29.343     8.885
     3   6 C        2.890     0.064    26.558     8.449
     4   6 C        2.899     0.143    24.887     8.180
     5   6 C        2.890     0.081    26.196     8.391
     6   6 C        2.972    -0.055    29.374     8.890
     7   1 H        0.925     0.110     1.698     2.038
     8   1 H        0.925     0.115     1.652     2.010
     9   8 O        1.659    -0.392    20.700     6.142
    10   1 H        0.805     0.388     0.508     1.119
    11  17 Cl       0.954    -0.165   104.322    15.626
    12  17 Cl       0.952    -0.176   104.673    15.652
    13  17 Cl       0.956    -0.155   104.010    15.603

 Mol. C6AA /au·bohr⁶  :       4844.331162
 Mol. C8AA /au·bohr⁸  :     157760.184129
 Mol. α(0) /au        :        109.319601


Wiberg/Mayer (AO) data.
largest (>0.10) Wiberg bond orders for each atom

 ---------------------------------------------------------------------------
     #   Z sym  total        # sym  WBO       # sym  WBO       # sym  WBO
 ---------------------------------------------------------------------------
     1   6 C    3.918 --     6 C    1.398     2 C    1.397    12 Cl   0.967
     2   6 C    3.979 --     3 C    1.414     1 C    1.397     7 H    0.957
     3   6 C    3.911 --     2 C    1.414     4 C    1.322    11 Cl   0.965
     4   6 C    3.959 --     3 C    1.322     5 C    1.320     9 O    1.130
     5   6 C    3.919 --     6 C    1.415     4 C    1.320    13 Cl   0.979
     6   6 C    3.978 --     5 C    1.415     1 C    1.398     8 H    0.956
     7   1 H    0.987 --     2 C    0.957
     8   1 H    0.986 --     6 C    0.956
     9   8 O    2.139 --     4 C    1.130    10 H    0.821
    10   1 H    0.849 --     9 O    0.821
    11  17 Cl   1.109 --     3 C    0.965
    12  17 Cl   1.086 --     1 C    0.967
    13  17 Cl   1.110 --     5 C    0.979
 ---------------------------------------------------------------------------

Topologies differ in total number of bonds
Writing topology from bond orders to xtbtopo.mol

molecular dipole:
                 x           y           z       tot (Debye)
 q only:        0.293      -0.546       0.000
   full:        0.201      -0.847      -0.000       2.212
molecular quadrupole (traceless):
                xx          xy          yy          xz          yz          zz
 q only:       -1.317      -5.156      -2.131       0.000       0.000       3.448
  q+dip:       -1.502      -5.598       1.716       0.000      -0.000      -0.214
   full:       -1.715      -5.677       0.796       0.000      -0.000       0.920


           -------------------------------------------------
          | TOTAL ENERGY              -32.108443838787 Eh   |
          | GRADIENT NORM               0.020199228474 Eh/α |
          | HOMO-LUMO GAP               3.688418917725 eV   |
           -------------------------------------------------

------------------------------------------------------------------------
 * finished run on 2021/11/15 at 09:23:08.389     
------------------------------------------------------------------------
 total:
 * wall-time:     0 d,  0 h,  0 min,  0.038 sec
 *  cpu-time:     0 d,  0 h,  0 min,  0.047 sec
 * ratio c/w:     1.234 speedup
 SCF:
 * wall-time:     0 d,  0 h,  0 min,  0.013 sec
 *  cpu-time:     0 d,  0 h,  0 min,  0.016 sec
 * ratio c/w:     1.188 speedup

