      -----------------------------------------------------------      
     |                   =====================                   |     
     |                           x T B                           |     
     |                   =====================                   |     
     |                         S. Grimme                         |     
     |          Mulliken Center for Theoretical Chemistry        |     
     |                    University of Bonn                     |     
      -----------------------------------------------------------      

   * xtb version 6.4.1 (afa7bdf) compiled by 'ehlert@majestix' on 2021-06-10

   xtb is free software: you can redistribute it and/or modify it under
   the terms of the GNU Lesser General Public License as published by
   the Free Software Foundation, either version 3 of the License, or
   (at your option) any later version.
   
   xtb is distributed in the hope that it will be useful,
   but WITHOUT ANY WARRANTY; without even the implied warranty of
   MERCHANTABILITY or FITNESS FOR A PARTICULAR PURPOSE.  See the
   GNU Lesser General Public License for more details.
   
   Cite this work as:
   * C. Bannwarth, E. Caldeweyher, S. Ehlert, A. Hansen, P. Pracht,
     J. Seibert, S. Spicher, S. Grimme, WIREs Comput. Mol. Sci., 2020, 11,
     e01493. DOI: 10.1002/wcms.1493
   
   for GFN2-xTB:
   * C. Bannwarth, S. Ehlert and S. Grimme., J. Chem. Theory Comput., 2019,
     15, 1652-1671. DOI: 10.1021/acs.jctc.8b01176
   for GFN1-xTB:
   * S. Grimme, C. Bannwarth, P. Shushkov, J. Chem. Theory Comput., 2017,
     13, 1989-2009. DOI: 10.1021/acs.jctc.7b00118
   for GFN0-xTB:
   * P. Pracht, E. Caldeweyher, S. Ehlert, S. Grimme, ChemRxiv, 2019, preprint.
     DOI: 10.26434/chemrxiv.8326202.v1
   for GFN-FF:
   * S. Spicher and S. Grimme, Angew. Chem. Int. Ed., 2020, 59, 15665-15673.
     DOI: 10.1002/anie.202004239
   
   for DFT-D4:
   * E. Caldeweyher, C. Bannwarth and S. Grimme, J. Chem. Phys., 2017,
     147, 034112. DOI: 10.1063/1.4993215
   * E. Caldeweyher, S. Ehlert, A. Hansen, H. Neugebauer, S. Spicher,
     C. Bannwarth and S. Grimme, J. Chem. Phys., 2019, 150, 154122.
     DOI: 10.1063/1.5090222
   * E. Caldeweyher, J.-M. Mewes, S. Ehlert and S. Grimme, Phys. Chem. Chem. Phys.
     2020, 22, 8499-8512. DOI: 10.1039/D0CP00502A
   
   for sTDA-xTB:
   * S. Grimme and C. Bannwarth, J. Chem. Phys., 2016, 145, 054103.
     DOI: 10.1063/1.4959605
   
   in the mass-spec context:
   * V. Asgeirsson, C. Bauer and S. Grimme, Chem. Sci., 2017, 8, 4879.
     DOI: 10.1039/c7sc00601b
   * J. Koopman and S. Grimme, ACS Omega 2019, 4, 12, 15120-15133.
     DOI: 10.1021/acsomega.9b02011
   
   for metadynamics refer to:
   * S. Grimme, J. Chem. Theory Comput., 2019, 155, 2847-2862
     DOI: 10.1021/acs.jctc.9b00143
   
   for SPH calculations refer to:
   * S. Spicher and S. Grimme, J. Chem. Theory Comput., 2021, 17, 1701-1714
     DOI: 10.1021/acs.jctc.0c01306
   
   with help from (in alphabetical order)
   P. Atkinson, C. Bannwarth, F. Bohle, G. Brandenburg, E. Caldeweyher
   M. Checinski, S. Dohm, S. Ehlert, S. Ehrlich, I. Gerasimov, J. Koopman
   C. Lavigne, S. Lehtola, F. März, M. Müller, F. Musil, H. Neugebauer
   J. Pisarek, C. Plett, P. Pracht, J. Seibert, P. Shushkov, S. Spicher
   M. Stahn, M. Steiner, T. Strunk, J. Stückrath, T. Rose, and J. Unsleber
   
 * started run on 2021/11/15 at 09:36:18.882     

           -------------------------------------------------
          |                Calculation Setup                |
           -------------------------------------------------

          program call               : xtb 25_4-chloroaniline.xyz --gfn2 --chrg 0 --uhf 0 --alpb water --ohess -P 1
          coordinate file            : 25_4-chloroaniline.xyz
          omp threads                :                     1
          number of atoms            :                    14
          number of electrons        :                    42
          charge                     :                     0
          spin                       :                   0.0
          first test random number   :      0.49452476950111

   ID    Z sym.   atoms
    1    6 C      1-6
    2    1 H      7-10, 12, 13
    3    7 N      11
    4   17 Cl     14

           -------------------------------------------------
          |                 G F N 2 - x T B                 |
           -------------------------------------------------

        Reference                      10.1021/acs.jctc.8b01176
      * Hamiltonian:
        H0-scaling (s, p, d)           1.850000    2.230000    2.230000
        zeta-weighting                 0.500000
      * Dispersion:
        s8                             2.700000
        a1                             0.520000
        a2                             5.000000
        s9                             5.000000
      * Repulsion:
        kExp                           1.500000    1.000000
        rExp                           1.000000
      * Coulomb:
        alpha                          2.000000
        third order                    shell-resolved
        anisotropic                    true
        a3                             3.000000
        a5                             4.000000
        cn-shift                       1.200000
        cn-exp                         4.000000
        max-rad                        5.000000

      * Solvation model:               ALPB
        Solvent                        water
        Parameter file                 internal GFN2-xTB/ALPB
        Dielectric constant                8.0200E+01
        Reference state                gsolv [1 M gas/solution]
        Free energy shift                  1.0808E-03 Eh       6.7819E-01 kcal/mol
        Temperature                        2.9815E+02 K
        Density                            1.0000E+00 kg/L
        Solvent mass                       1.8000E+01 g/mol
        Interaction kernel             P16
        Born radius scaling (c1)           1.4744E+00
        Born radii integrator          GBOBC
        Born offset                        0.0000E+00 a0       0.0000E+00 AA
        H-bond correction              true
        Ion screening                  false
        Surface tension                    1.0000E-05 Eh       1.5569E+01 dyn/cm
        Grid points                               230 per atom

          ...................................................
          :                      SETUP                      :
          :.................................................:
          :  # basis functions                  44          :
          :  # atomic orbitals                  43          :
          :  # shells                           23          :
          :  # electrons                        42          :
          :  max. iterations                   250          :
          :  Hamiltonian                  GFN2-xTB          :
          :  restarted?                      false          :
          :  GBSA solvation                   true          :
          :  PC potential                    false          :
          :  electronic temp.          300.0000000     K    :
          :  accuracy                    1.0000000          :
          :  -> integral cutoff          0.2500000E+02      :
          :  -> integral neglect         0.1000000E-07      :
          :  -> SCF convergence          0.1000000E-05 Eh   :
          :  -> wf. convergence          0.1000000E-03 e    :
          :  Broyden damping             0.4000000          :
          ...................................................

 iter      E             dE          RMSdq      gap      omega  full diag
   1    -23.6870421 -0.236870E+02  0.465E+00    3.21       0.0  T
   2    -23.6995376 -0.124954E-01  0.282E+00    3.65       1.0  T
   3    -23.6950416  0.449596E-02  0.892E-01    3.59       1.0  T
   4    -23.7015257 -0.648409E-02  0.233E-01    3.63       1.0  T
   5    -23.7019260 -0.400340E-03  0.778E-02    3.64       1.0  T
   6    -23.7019383 -0.122746E-04  0.522E-02    3.63       1.0  T
   7    -23.7019496 -0.113246E-04  0.325E-02    3.63       1.0  T
   8    -23.7019535 -0.391708E-05  0.259E-02    3.63       1.0  T
   9    -23.7019585 -0.495860E-05  0.464E-03    3.63       5.8  T
  10    -23.7019586 -0.915405E-07  0.242E-03    3.63      11.1  T
  11    -23.7019586 -0.192819E-07  0.118E-03    3.63      22.7  T
  12    -23.7019586 -0.267233E-08  0.217E-04    3.63     123.3  T
  13    -23.7019586 -0.692033E-10  0.108E-04    3.63     246.7  T

   *** convergence criteria satisfied after 13 iterations ***

         #    Occupation            Energy/Eh            Energy/eV
      -------------------------------------------------------------
         1        2.0000           -1.0592140             -28.8227
       ...           ...                  ...                  ...
        15        2.0000           -0.4624380             -12.5836
        16        2.0000           -0.4471476             -12.1675
        17        2.0000           -0.4326999             -11.7744
        18        2.0000           -0.4189029             -11.3989
        19        2.0000           -0.4164984             -11.3335
        20        2.0000           -0.4068881             -11.0720
        21        2.0000           -0.3616286              -9.8404 (HOMO)
        22                         -0.2281179              -6.2074 (LUMO)
        23                         -0.2170293              -5.9057
        24                         -0.1426532              -3.8818
        25                         -0.0990922              -2.6964
        26                          0.0170804               0.4648
       ...                                ...                  ...
        43                          0.6293200              17.1247
      -------------------------------------------------------------
                  HL-Gap            0.1335108 Eh            3.6330 eV
             Fermi-level           -0.2948732 Eh           -8.0239 eV

 SCC (total)                   0 d,  0 h,  0 min,  0.009 sec
 SCC setup                      ...        0 min,  0.000 sec (  3.937%)
 Dispersion                     ...        0 min,  0.000 sec (  1.018%)
 classical contributions        ...        0 min,  0.000 sec (  0.198%)
 integral evaluation            ...        0 min,  0.001 sec ( 15.913%)
 iterations                     ...        0 min,  0.004 sec ( 49.015%)
 molecular gradient             ...        0 min,  0.003 sec ( 28.103%)
 printout                       ...        0 min,  0.000 sec (  1.603%)

         :::::::::::::::::::::::::::::::::::::::::::::::::::::
         ::                     SUMMARY                     ::
         :::::::::::::::::::::::::::::::::::::::::::::::::::::
         :: total energy             -23.377162489101 Eh    ::
         :: total w/o Gsasa/hb       -23.372215497994 Eh    ::
         :: gradient norm              0.018217696971 Eh/a0 ::
         :: HOMO-LUMO gap              3.633012650468 eV    ::
         ::.................................................::
         :: SCC energy               -23.701958612846 Eh    ::
         :: -> isotropic ES            0.019839012758 Eh    ::
         :: -> anisotropic ES          0.000334208342 Eh    ::
         :: -> anisotropic XC          0.012238599142 Eh    ::
         :: -> dispersion             -0.011580367454 Eh    ::
         :: -> Gsolv                  -0.010976959717 Eh    ::
         ::    -> Gelec               -0.006029968610 Eh    ::
         ::    -> Gsasa               -0.002555179927 Eh    ::
         ::    -> Ghb                 -0.003472570879 Eh    ::
         ::    -> Gshift               0.001080759698 Eh    ::
         :: repulsion energy           0.324787086495 Eh    ::
         :: add. restraining           0.000000000000 Eh    ::
         :: total charge               0.000000000000 e     ::
         :::::::::::::::::::::::::::::::::::::::::::::::::::::

      ----------------------------------------------------------- 
     |                   =====================                   |
     |                        A N C O P T                        |
     |                   =====================                   |
     |               Approximate Normal Coordinate               |
     |                Rational Function Optimizer                |
      ----------------------------------------------------------- 

          ...................................................
          :                      SETUP                      :
          :.................................................:
          :   optimization level            normal          :
          :   max. optcycles                   200          :
          :   ANC micro-cycles                  20          :
          :   degrees of freedom                36          :
          :.................................................:
          :   RF solver                   davidson          :
          :   write xtbopt.log                true          :
          :   linear?                        false          :
          :   energy convergence         0.5000000E-05 Eh   :
          :   grad. convergence          0.1000000E-02 Eh/α :
          :   maximium RF displ.         1.0000000          :
          :   Hlow (freq-cutoff)         0.1000000E-01      :
          :   Hmax (freq-cutoff)         5.0000000          :
          :   S6 in model hess.         20.0000000          :
          ...................................................

generating ANC from model Hessian ...
Using Lindh-Hessian (1995)
 Shifting diagonal of input Hessian by   4.405099508401652E-003
 Lowest  eigenvalues of input Hessian
    0.000000    0.000000    0.000000    0.000000    0.000000    0.000000
    0.010000    0.017422    0.021240    0.021486    0.026225    0.031802
    0.053130    0.054181    0.072170    0.075050    0.098576    0.103007
 Highest eigenvalues
    1.454736    1.593067    1.738697    1.853220    1.954053    2.047012
 

........................................................................
.............................. CYCLE    1 ..............................
........................................................................
   1    -23.7019586 -0.237020E+02  0.642E-05    3.63       0.0  T
   2    -23.7019586 -0.729017E-11  0.511E-05    3.63     523.2  T
   3    -23.7019586 -0.462919E-11  0.380E-05    3.63     703.5  T
     SCC iter.                  ...        0 min,  0.002 sec
     gradient                   ...        0 min,  0.002 sec
 * total energy  :   -23.3771625 Eh     change       -0.5611156E-10 Eh
   gradient norm :     0.0182180 Eh/α   predicted     0.0000000E+00 (-100.00%)
   displ. norm   :     0.0923078 α      lambda       -0.1331155E-02
   maximum displ.:     0.0432218 α      in ANC's #19, #18, #20, ...

........................................................................
.............................. CYCLE    2 ..............................
........................................................................
   1    -23.7160543 -0.237161E+02  0.126E-01    3.65       0.0  T
   2    -23.7160641 -0.979910E-05  0.738E-02    3.67       1.0  T
   3    -23.7160618  0.227079E-05  0.342E-02    3.66       1.0  T
   4    -23.7160675 -0.566648E-05  0.100E-02    3.67       2.7  T
   5    -23.7160677 -0.240694E-06  0.835E-03    3.67       3.2  T
   6    -23.7160680 -0.272532E-06  0.589E-03    3.67       4.5  T
   7    -23.7160682 -0.273279E-06  0.212E-03    3.67      12.6  T
   8    -23.7160683 -0.202895E-07  0.833E-04    3.67      32.1  T
   9    -23.7160683 -0.297096E-08  0.382E-04    3.67      70.0  T
     SCC iter.                  ...        0 min,  0.003 sec
     gradient                   ...        0 min,  0.003 sec
 * total energy  :   -23.3780192 Eh     change       -0.8567468E-03 Eh
   gradient norm :     0.0094309 Eh/α   predicted    -0.6712499E-03 ( -21.65%)
   displ. norm   :     0.0608671 α      lambda       -0.3345491E-03
   maximum displ.:     0.0326892 α      in ANC's #19, #1, #15, ...

........................................................................
.............................. CYCLE    3 ..............................
........................................................................
   1    -23.7213212 -0.237213E+02  0.841E-02    3.65       0.0  T
   2    -23.7213320 -0.108156E-04  0.465E-02    3.66       1.0  T
   3    -23.7213326 -0.652294E-06  0.282E-02    3.66       1.0  T
   4    -23.7213350 -0.233396E-05  0.761E-03    3.66       3.5  T
   5    -23.7213352 -0.174989E-06  0.590E-03    3.66       4.5  T
   6    -23.7213353 -0.104961E-06  0.448E-03    3.66       6.0  T
   7    -23.7213354 -0.146403E-06  0.190E-03    3.66      14.0  T
   8    -23.7213354 -0.214714E-07  0.287E-04    3.66      93.3  T
   9    -23.7213354 -0.202615E-09  0.124E-04    3.66     214.7  T
     SCC iter.                  ...        0 min,  0.003 sec
     gradient                   ...        0 min,  0.002 sec
 * total energy  :   -23.3782477 Eh     change       -0.2284453E-03 Eh
   gradient norm :     0.0064372 Eh/α   predicted    -0.1678957E-03 ( -26.51%)
   displ. norm   :     0.0637099 α      lambda       -0.1895712E-03
   maximum displ.:     0.0382848 α      in ANC's #1, #19, #3, ...

........................................................................
.............................. CYCLE    4 ..............................
........................................................................
   1    -23.7224546 -0.237225E+02  0.794E-02    3.63       0.0  T
   2    -23.7224667 -0.120802E-04  0.427E-02    3.64       1.0  T
   3    -23.7224679 -0.124257E-05  0.270E-02    3.64       1.0  T
   4    -23.7224699 -0.193997E-05  0.615E-03    3.64       4.3  T
   5    -23.7224700 -0.127049E-06  0.415E-03    3.65       6.4  T
   6    -23.7224700 -0.426389E-07  0.310E-03    3.65       8.6  T
   7    -23.7224701 -0.521033E-07  0.177E-03    3.65      15.1  T
   8    -23.7224701 -0.214042E-07  0.575E-04    3.65      46.5  T
   9    -23.7224701 -0.203607E-08  0.265E-04    3.65     100.9  T
     SCC iter.                  ...        0 min,  0.003 sec
     gradient                   ...        0 min,  0.002 sec
 * total energy  :   -23.3783789 Eh     change       -0.1311733E-03 Eh
   gradient norm :     0.0045103 Eh/α   predicted    -0.9516956E-04 ( -27.45%)
   displ. norm   :     0.0505893 α      lambda       -0.9482550E-04
   maximum displ.:     0.0338140 α      in ANC's #1, #19, #15, ...

........................................................................
.............................. CYCLE    5 ..............................
........................................................................
   1    -23.7216668 -0.237217E+02  0.586E-02    3.62       0.0  T
   2    -23.7216724 -0.558910E-05  0.320E-02    3.63       1.0  T
   3    -23.7216729 -0.525434E-06  0.199E-02    3.63       1.3  T
   4    -23.7216742 -0.122425E-05  0.331E-03    3.63       8.1  T
   5    -23.7216742 -0.352573E-07  0.163E-03    3.63      16.4  T
   6    -23.7216742 -0.404641E-08  0.893E-04    3.63      29.9  T
   7    -23.7216742 -0.244051E-08  0.388E-04    3.63      68.9  T
     SCC iter.                  ...        0 min,  0.003 sec
     gradient                   ...        0 min,  0.003 sec
 * total energy  :   -23.3784411 Eh     change       -0.6227282E-04 Eh
   gradient norm :     0.0029261 Eh/α   predicted    -0.4753424E-04 ( -23.67%)
   displ. norm   :     0.0273339 α      lambda       -0.2438800E-04
   maximum displ.:     0.0181019 α      in ANC's #1, #7, #19, ...

........................................................................
.............................. CYCLE    6 ..............................
........................................................................
   1    -23.7211769 -0.237212E+02  0.290E-02    3.62       0.0  T
   2    -23.7211778 -0.924729E-06  0.165E-02    3.62       1.6  T
   3    -23.7211778 -0.236112E-07  0.983E-03    3.62       2.7  T
   4    -23.7211782 -0.395951E-06  0.172E-03    3.62      15.5  T
   5    -23.7211782 -0.516048E-08  0.108E-03    3.62      24.8  T
   6    -23.7211783 -0.257035E-08  0.704E-04    3.62      38.0  T
   7    -23.7211783 -0.212302E-08  0.498E-04    3.62      53.7  T
     SCC iter.                  ...        0 min,  0.003 sec
     gradient                   ...        0 min,  0.002 sec
 * total energy  :   -23.3784567 Eh     change       -0.1554046E-04 Eh
   gradient norm :     0.0017008 Eh/α   predicted    -0.1220181E-04 ( -21.48%)
   displ. norm   :     0.0214040 α      lambda       -0.5135698E-05
   maximum displ.:     0.0153277 α      in ANC's #1, #19, #15, ...

........................................................................
.............................. CYCLE    7 ..............................
........................................................................
   1    -23.7212649 -0.237213E+02  0.205E-02    3.62       0.0  T
   2    -23.7212652 -0.395793E-06  0.120E-02    3.62       2.2  T
   3    -23.7212653 -0.140664E-07  0.709E-03    3.62       3.8  T
   4    -23.7212655 -0.223498E-06  0.180E-03    3.62      14.8  T
   5    -23.7212655 -0.647503E-08  0.131E-03    3.62      20.4  T
   6    -23.7212655 -0.742276E-08  0.872E-04    3.62      30.7  T
   7    -23.7212655 -0.400720E-08  0.588E-04    3.62      45.5  T
     SCC iter.                  ...        0 min,  0.003 sec
     gradient                   ...        0 min,  0.003 sec
 * total energy  :   -23.3784605 Eh     change       -0.3790180E-05 Eh
   gradient norm :     0.0006940 Eh/α   predicted    -0.2568891E-05 ( -32.22%)
   displ. norm   :     0.0025217 α      lambda       -0.6162983E-06
   maximum displ.:     0.0015802 α      in ANC's #9, #3, #18, ...

   *** GEOMETRY OPTIMIZATION CONVERGED AFTER 7 ITERATIONS ***

------------------------------------------------------------------------
 total energy gain   :        -0.0012980 Eh       -0.8145 kcal/mol
 total RMSD          :         0.0739654 a0        0.0391 Å
 total power (kW/mol):        -0.4868310 (step)  -66.6801 (real)
------------------------------------------------------------------------

 ANCopt (total)                0 d,  0 h,  0 min,  0.051 sec
 optimizer setup                ...        0 min,  0.000 sec (  0.311%)
 model hessian                  ...        0 min,  0.001 sec (  1.846%)
 ANC generation                 ...        0 min,  0.000 sec (  0.362%)
 coordinate transformation      ...        0 min,  0.000 sec (  0.079%)
 single point calculation       ...        0 min,  0.048 sec ( 93.234%)
 optimization log               ...        0 min,  0.001 sec (  2.222%)
 hessian update                 ...        0 min,  0.000 sec (  0.074%)
 rational function              ...        0 min,  0.001 sec (  1.129%)

================
 final structure:
================
14
 xtb: 6.4.1 (afa7bdf)
C        -0.96104837322230    0.00000368850091   -0.00879156107687
C        -0.27714767538168    1.20398392725958   -0.00011219201951
C         1.10216964720991    1.20167027814944    0.01869452204983
C         1.82115650725133    0.00000532146371    0.02725374055564
C         1.10217586481736   -1.20165646874881    0.01870607204314
C        -0.27714806943233   -1.20396941670822   -0.00009586879283
H        -0.82245589126794    2.13462929253251   -0.00540625688533
H         1.63550912828531    2.13986122320985    0.02490376710273
H         1.63549656313705   -2.13985765074020    0.02493016441444
H        -0.82243999502882   -2.13462464856934   -0.00536953374897
N         3.18589292250434    0.00001766335633   -0.01659515300709
H         3.65926755674612    0.85521456910963    0.21685572491735
H         3.65929255972242   -0.85516780625010    0.21684977044512
Cl       -2.71015874534075    0.00001102743473   -0.02905219599766
 
 Bond Distances (Angstroems)
 ---------------------------
C1-C2=1.3847         C1-C6=1.3847         C1-Cl14=1.7492       C2-C1=1.3847         C2-C3=1.3794         C2-H7=1.0787         
C3-C2=1.3794         C3-C4=1.4004         C3-H8=1.0792         C4-C3=1.4004         C4-C5=1.4004         C4-N11=1.3654        
C5-C4=1.4004         C5-C6=1.3795         C5-H9=1.0792         C6-C1=1.3847         C6-C5=1.3795         C6-H10=1.0787        
H7-C2=1.0787         H8-C3=1.0792         H9-C5=1.0792         H10-C6=1.0787        N11-C4=1.3654        N11-H12=1.0050       
N11-H13=1.0050       H12-N11=1.0050       H13-N11=1.0050       Cl14-C1=1.7492       
 C  H  Rav=1.0789 sigma=0.0003  Rmin=1.0787  Rmax=1.0792     4
 C  C  Rav=1.3882 sigma=0.0089  Rmin=1.3794  Rmax=1.4004     6
 N  H  Rav=1.0050 sigma=0.0000  Rmin=1.0050  Rmax=1.0050     2
 N  C  Rav=1.3654 sigma=0.0000  Rmin=1.3654  Rmax=1.3654     1
 Cl C  Rav=1.7492 sigma=0.0000  Rmin=1.7492  Rmax=1.7492     1
 
 selected bond angles (degree)
 --------------------
C6-C1-C2=120.80                Cl14-C1-C2=119.60              Cl14-C1-C6=119.60              C3-C2-C1=119.50                
H7-C2-C1=120.03                H7-C2-C3=120.47                C4-C3-C2=120.99                H8-C3-C2=119.52                
H8-C3-C4=119.49                C5-C4-C3=118.21                N11-C4-C3=120.86               N11-C4-C5=120.86               
C6-C5-C4=120.99                H9-C5-C4=119.49                H9-C5-C6=119.52                C5-C6-C1=119.50                
H10-C6-C1=120.03               H10-C6-C5=120.46               
 
 selected dihedral angles (degree)
 ---------------------------------
C3-C2-C1-C6=359.94            C3-C2-C1-Cl14=179.86          H7-C2-C1-C6=180.10            H7-C2-C1-Cl14=  0.03          
C4-C3-C2-C1=  0.09            C4-C3-C2-H7=179.93            H8-C3-C2-C1=179.97            H8-C3-C2-H7=359.80            
C5-C4-C3-C2=359.88            C5-C4-C3-H8=180.01            N11-C4-C3-C2=176.95           N11-C4-C3-H8=357.07           
C6-C5-C4-C3=  0.12            C6-C5-C4-N11=183.05           H9-C5-C4-C3=179.99            H9-C5-C4-N11=  2.93           
C5-C6-C1-C2=  0.06            C5-C6-C1-Cl14=180.13          H10-C6-C1-C2=179.90           H10-C6-C1-Cl14=359.97         
C1-C6-C5-C4=359.91            C1-C6-C5-H9=180.03            H10-C6-C5-C4=180.07           H10-C6-C5-H9=  0.20           
           -------------------------------------------------
          |                Final Singlepoint                |
           -------------------------------------------------

          ...................................................
          :                      SETUP                      :
          :.................................................:
          :  # basis functions                  44          :
          :  # atomic orbitals                  43          :
          :  # shells                           23          :
          :  # electrons                        42          :
          :  max. iterations                   250          :
          :  Hamiltonian                  GFN2-xTB          :
          :  restarted?                      false          :
          :  GBSA solvation                   true          :
          :  PC potential                    false          :
          :  electronic temp.          300.0000000     K    :
          :  accuracy                    1.0000000          :
          :  -> integral cutoff          0.2500000E+02      :
          :  -> integral neglect         0.1000000E-07      :
          :  -> SCF convergence          0.1000000E-05 Eh   :
          :  -> wf. convergence          0.1000000E-03 e    :
          :  Broyden damping             0.4000000          :
          ...................................................

 iter      E             dE          RMSdq      gap      omega  full diag
   1    -23.7212655 -0.237213E+02  0.151E-04    3.62       0.0  T
   2    -23.7212655 -0.129745E-09  0.949E-05    3.62     281.5  T
   3    -23.7212655 -0.522000E-10  0.630E-05    3.62     424.0  T

   *** convergence criteria satisfied after 3 iterations ***

         #    Occupation            Energy/Eh            Energy/eV
      -------------------------------------------------------------
         1        2.0000           -1.0586838             -28.8083
       ...           ...                  ...                  ...
        15        2.0000           -0.4637257             -12.6186
        16        2.0000           -0.4467913             -12.1578
        17        2.0000           -0.4314414             -11.7401
        18        2.0000           -0.4185324             -11.3888
        19        2.0000           -0.4145865             -11.2815
        20        2.0000           -0.4062268             -11.0540
        21        2.0000           -0.3563911              -9.6979 (HOMO)
        22                         -0.2234680              -6.0809 (LUMO)
        23                         -0.2105156              -5.7284
        24                         -0.1361953              -3.7061
        25                         -0.0909423              -2.4747
        26                          0.0179671               0.4889
       ...                                ...                  ...
        43                          0.6587276              17.9249
      -------------------------------------------------------------
                  HL-Gap            0.1329230 Eh            3.6170 eV
             Fermi-level           -0.2899295 Eh           -7.8894 eV

 SCC (total)                   0 d,  0 h,  0 min,  0.006 sec
 SCC setup                      ...        0 min,  0.000 sec (  4.595%)
 Dispersion                     ...        0 min,  0.000 sec (  0.493%)
 classical contributions        ...        0 min,  0.000 sec (  0.171%)
 integral evaluation            ...        0 min,  0.001 sec ( 22.482%)
 iterations                     ...        0 min,  0.002 sec ( 26.567%)
 molecular gradient             ...        0 min,  0.003 sec ( 42.935%)
 printout                       ...        0 min,  0.000 sec (  2.424%)

         :::::::::::::::::::::::::::::::::::::::::::::::::::::
         ::                     SUMMARY                     ::
         :::::::::::::::::::::::::::::::::::::::::::::::::::::
         :: total energy             -23.378460460539 Eh    ::
         :: total w/o Gsasa/hb       -23.373500135242 Eh    ::
         :: gradient norm              0.000710244120 Eh/a0 ::
         :: HOMO-LUMO gap              3.617020291117 eV    ::
         ::.................................................::
         :: SCC energy               -23.721265505916 Eh    ::
         :: -> isotropic ES            0.020181221037 Eh    ::
         :: -> anisotropic ES          0.000150997518 Eh    ::
         :: -> anisotropic XC          0.011653251317 Eh    ::
         :: -> dispersion             -0.011655309838 Eh    ::
         :: -> Gsolv                  -0.011593394690 Eh    ::
         ::    -> Gelec               -0.006633069393 Eh    ::
         ::    -> Gsasa               -0.002380516249 Eh    ::
         ::    -> Ghb                 -0.003660568746 Eh    ::
         ::    -> Gshift               0.001080759698 Eh    ::
         :: repulsion energy           0.342796299945 Eh    ::
         :: add. restraining           0.000000000000 Eh    ::
         :: total charge              -0.000000000000 e     ::
         :::::::::::::::::::::::::::::::::::::::::::::::::::::

           ------------------------------------------------- 
          |                Numerical Hessian                |
           ------------------------------------------------- 
step length          :   0.00500
SCC accuracy         :   0.30000
Hessian scale factor :   1.00000
frozen atoms in %    :   0.00000    0
RMS gradient         :   0.00071
estimated CPU  time      0.01 min
estimated wall time      0.01 min

writing file <hessian>.

 projected vibrational frequencies (cm⁻¹)
eigval :       -0.00    -0.00    -0.00     0.00     0.00     0.00
eigval :      112.57   239.44   310.84   349.21   370.24   384.12
eigval :      400.23   415.74   476.77   605.17   619.35   653.80
eigval :      794.32   843.30   851.33   894.77   909.27   991.12
eigval :     1003.03  1104.49  1133.52  1185.50  1265.44  1309.75
eigval :     1337.44  1420.22  1447.38  1491.73  1568.52  1598.75
eigval :     3084.88  3087.44  3099.23  3102.79  3484.83  3544.51
           -------------------------------------------------
          |                Property Printout                |
           -------------------------------------------------

    * Orbital Energies and Occupations

         #    Occupation            Energy/Eh            Energy/eV
      -------------------------------------------------------------
         1        2.0000           -1.0586838             -28.8083
       ...           ...                  ...                  ...
         9        2.0000           -0.5284292             -14.3793
        10        2.0000           -0.5143913             -13.9973
        11        2.0000           -0.4954501             -13.4819
        12        2.0000           -0.4856006             -13.2139
        13        2.0000           -0.4841972             -13.1757
        14        2.0000           -0.4771923             -12.9851
        15        2.0000           -0.4637255             -12.6186
        16        2.0000           -0.4467908             -12.1578
        17        2.0000           -0.4314411             -11.7401
        18        2.0000           -0.4185321             -11.3888
        19        2.0000           -0.4145861             -11.2815
        20        2.0000           -0.4062263             -11.0540
        21        2.0000           -0.3563906              -9.6979 (HOMO)
        22                         -0.2234675              -6.0809 (LUMO)
        23                         -0.2105151              -5.7284
        24                         -0.1361941              -3.7060
        25                         -0.0909419              -2.4747
        26                          0.0179672               0.4889
        27                          0.0219414               0.5971
        28                          0.0220827               0.6009
        29                          0.0347270               0.9450
        30                          0.0451912               1.2297
        31                          0.1288018               3.5049
        32                          0.1490295               4.0553
       ...                                ...                  ...
        43                          0.6587281              17.9249
      -------------------------------------------------------------
                  HL-Gap            0.1329231 Eh            3.6170 eV
             Fermi-level           -0.2899291 Eh           -7.8894 eV

     #   Z          covCN         q      C6AA      α(0)
     1   6 C        2.889     0.078    26.256     8.401
     2   6 C        2.946    -0.045    29.112     8.849
     3   6 C        2.927    -0.068    29.695     8.937
     4   6 C        2.896     0.084    26.130     8.381
     5   6 C        2.927    -0.068    29.695     8.937
     6   6 C        2.946    -0.045    29.112     8.849
     7   1 H        0.926     0.050     2.320     2.382
     8   1 H        0.926     0.052     2.290     2.366
     9   1 H        0.926     0.052     2.290     2.366
    10   1 H        0.926     0.050     2.320     2.382
    11   7 N        2.642    -0.300    27.732     7.821
    12   1 H        0.860     0.209     1.060     1.613
    13   1 H        0.860     0.209     1.060     1.613
    14  17 Cl       0.953    -0.260   107.403    15.855

 Mol. C6AA /au·bohr⁶  :       3097.091925
 Mol. C8AA /au·bohr⁸  :      84957.135563
 Mol. α(0) /au        :         88.751705


Wiberg/Mayer (AO) data.
largest (>0.10) Wiberg bond orders for each atom

 ---------------------------------------------------------------------------
     #   Z sym  total        # sym  WBO       # sym  WBO       # sym  WBO
 ---------------------------------------------------------------------------
     1   6 C    3.880 --     6 C    1.396     2 C    1.396    14 Cl   0.917
     2   6 C    3.989 --     3 C    1.467     1 C    1.396     7 H    0.968
     3   6 C    3.985 --     2 C    1.467     4 C    1.326     8 H    0.966
     4   6 C    3.979 --     5 C    1.326     3 C    1.326    11 N    1.210
     5   6 C    3.985 --     6 C    1.467     4 C    1.326     9 H    0.966
     6   6 C    3.989 --     5 C    1.467     1 C    1.396    10 H    0.968
     7   1 H    0.997 --     2 C    0.968
     8   1 H    0.997 --     3 C    0.966
     9   1 H    0.997 --     5 C    0.966
    10   1 H    0.997 --     6 C    0.968
    11   7 N    3.286 --     4 C    1.210    13 H    0.937    12 H    0.937
    12   1 H    0.956 --    11 N    0.937
    13   1 H    0.956 --    11 N    0.937
    14  17 Cl   1.025 --     1 C    0.917
 ---------------------------------------------------------------------------

Topologies differ in total number of bonds
Writing topology from bond orders to xtbtopo.mol

molecular dipole:
                 x           y           z       tot (Debye)
 q only:        2.496      -0.000       0.197
   full:        2.198      -0.000       0.339       5.653
molecular quadrupole (traceless):
                xx          xy          yy          xz          yz          zz
 q only:        2.541       0.000       1.129       1.791      -0.000      -3.670
  q+dip:        4.465       0.000       3.343       3.488      -0.000      -7.807
   full:        4.423       0.000       1.513       3.475      -0.000      -5.936

           -------------------------------------------------
          |                Geometry Summary                 |
           -------------------------------------------------

      molecular mass/u    :      127.5717007
   center of mass at/Å    :       -0.0963748       0.0000095      -0.0009204
  moments of inertia/u·Å² :        0.8949925E+02   0.5172338E+03   0.6065307E+03
rotational constants/cm⁻¹ :        0.1883550E+00   0.3259190E-01   0.2779353E-01

 * 14 selected distances

     #   Z          #   Z                                           value/Å
     1   6 C        2   6 C                                       1.3846891
     2   6 C        3   6 C                                       1.3794475
     3   6 C        4   6 C                                       1.4003621
     4   6 C        5   6 C                                       1.4003561
     1   6 C        6   6 C                                       1.3846828
     5   6 C        6   6 C                                       1.3794540
     2   6 C        7   1 H                                       1.0786519
     3   6 C        8   1 H                                       1.0792089
     5   6 C        9   1 H                                       1.0792086
     6   6 C       10   1 H                                       1.0786521
     4   6 C       11   7 N                                       1.3654407
    11   7 N       12   1 H                                       1.0049600 (min)
    11   7 N       13   1 H                                       1.0049607
     1   6 C       14  17 Cl                                      1.7492277 (max)

 * 5 distinct bonds (by element types)

   Z      Z             #   av. dist./Å        max./Å        min./Å
   1 H    6 C           4     1.0789303     1.0792089     1.0786519
   6 C    6 C           6     1.3881653     1.4003621     1.3794475
   1 H    7 N           2     1.0049603     1.0049607     1.0049600
   6 C    7 N           1     1.3654407     1.3654407     1.3654407
   6 C   17 Cl          1     1.7492277     1.7492277     1.7492277

           -------------------------------------------------
          |               Frequency Printout                |
           -------------------------------------------------
 projected vibrational frequencies (cm⁻¹)
eigval :       -0.00    -0.00    -0.00     0.00     0.00     0.00
eigval :      112.57   239.44   310.84   349.21   370.24   384.12
eigval :      400.23   415.74   476.77   605.17   619.35   653.80
eigval :      794.32   843.30   851.33   894.77   909.27   991.12
eigval :     1003.03  1104.49  1133.52  1185.50  1265.44  1309.75
eigval :     1337.44  1420.22  1447.38  1491.73  1568.52  1598.75
eigval :     3084.88  3087.44  3099.23  3102.79  3484.83  3544.51
 reduced masses (amu)
   1: 15.38   2: 13.99   3: 21.70   4: 15.74   5: 12.22   6: 28.86   7: 16.30   8: 18.20
   9: 11.97  10: 24.79  11:  6.22  12:  9.06  13:  3.74  14:  4.84  15:  9.23  16: 11.39
  17: 14.90  18: 11.03  19:  5.03  20: 11.33  21:  3.32  22:  2.60  23:  3.82  24: 10.02
  25:  4.07  26:  7.70  27:  2.53  28:  1.69  29:  3.29  30:  8.38  31: 11.57  32: 10.16
  33:  4.02  34:  9.46  35: 11.64  36: 11.51  37:  1.79  38:  1.78  39:  1.88  40:  1.88
  41:  1.44  42:  2.18
 IR intensities (km·mol⁻¹)
   1:  1.04   2:  0.15   3:  1.25   4:  0.54   5:  1.15   6:  1.55   7:  1.07   8:  0.01
   9:  0.49  10:  0.26  11:  5.78  12:  5.83  13:550.90  14:  3.98  15:  2.07  16:  0.59
  17: 14.74  18:  1.32  19: 47.23  20:  5.51  21:  0.05  22:  0.08  23:  0.00  24: 15.93
  25:  5.66  26: 64.79  27:  4.25  28: 36.65  29:  1.45  30:138.78  31: 14.39  32:  8.67
  33:  7.03  34:470.66  35:  2.30  36:259.21  37: 28.17  38: 79.47  39:102.52  40:  5.32
  41: 60.42  42: 28.22
 Raman intensities (amu)
   1:  0.00   2:  0.00   3:  0.00   4:  0.00   5:  0.00   6:  0.00   7:  0.00   8:  0.00
   9:  0.00  10:  0.00  11:  0.00  12:  0.00  13:  0.00  14:  0.00  15:  0.00  16:  0.00
  17:  0.00  18:  0.00  19:  0.00  20:  0.00  21:  0.00  22:  0.00  23:  0.00  24:  0.00
  25:  0.00  26:  0.00  27:  0.00  28:  0.00  29:  0.00  30:  0.00  31:  0.00  32:  0.00
  33:  0.00  34:  0.00  35:  0.00  36:  0.00  37:  0.00  38:  0.00  39:  0.00  40:  0.00
  41:  0.00  42:  0.00
 output can be read by thermo (or use thermo option).
 writing <g98.out> molden fake output.
 recommended (thermochemical) frequency scaling factor: 1.0
           -------------------------------------------------
          |             Thermodynamic Functions             |
           -------------------------------------------------

Molecule has the following symmetry elements: (sigma) 
It seems to be the Cs point group
cs  symmetry found (for desy threshold:  0.10E+00) used in thermo

          ...................................................
          :                      SETUP                      :
          :.................................................:
          :  # frequencies                          36      :
          :  # imaginary freq.                       0      :
          :  linear?                             false      :
          :  only rotor calc.                    false      :
          :  symmetry                               cs      :
          :  rotational number                       1      :
          :  scaling factor                  1.0000000      :
          :  rotor cutoff                   50.0000000 cm⁻¹ :
          :  imag. cutoff                  -20.0000000 cm⁻¹ :
          :.................................................:

    mode    ω/cm⁻¹     T·S(HO)/kcal·mol⁻¹    T·S(FR)/kcal·mol⁻¹   T·S(vib)
   ------------------------------------------------------------------------
       1    112.57    -0.96127 ( 96.25%)    -0.81603 (  3.75%)    -0.95583
       2    239.44    -0.53877 ( 99.81%)    -0.59250 (  0.19%)    -0.53887
   ------------------------------------------------------------------------

   temp. (K)  partition function   enthalpy   heat capacity  entropy
                                   cal/mol     cal/K/mol   cal/K/mol   J/K/mol
 298.15  VIB   15.4                 2790.222     22.255     14.779
         ROT  0.405E+06              888.752      2.981     28.639
         INT  0.624E+07             3678.974     25.236     43.417
         TR   0.139E+28             1481.254      4.968     40.426
         TOT                        5160.2279    30.2044    83.8429   350.7986

       T/K    H(0)-H(T)+PV         H(T)/Eh          T*S/Eh         G(T)/Eh
   ------------------------------------------------------------------------
    298.15    0.822335E-02    0.111859E+00    0.398365E-01    0.720230E-01
   ------------------------------------------------------------------------

         :::::::::::::::::::::::::::::::::::::::::::::::::::::
         ::                  THERMODYNAMIC                  ::
         :::::::::::::::::::::::::::::::::::::::::::::::::::::
         :: total free energy         -23.306437436514 Eh   ::
         ::.................................................::
         :: total energy              -23.378460460967 Eh   ::
         :: zero point energy           0.103636131498 Eh   ::
         :: G(RRHO) w/o ZPVE           -0.031613107046 Eh   ::
         :: G(RRHO) contrib.            0.072023024452 Eh   ::
         :::::::::::::::::::::::::::::::::::::::::::::::::::::

optimized geometry written to: xtbopt.xyz


           -------------------------------------------------
          | TOTAL ENERGY              -23.378460460967 Eh   |
          | TOTAL ENTHALPY            -23.266600982848 Eh   |
          | TOTAL FREE ENERGY         -23.306437436514 Eh   |
          | GRADIENT NORM               0.000711112309 Eh/α |
          | HOMO-LUMO GAP               3.617021680743 eV   |
           -------------------------------------------------

------------------------------------------------------------------------
 * finished run on 2021/11/15 at 09:36:19.548     
------------------------------------------------------------------------
 total:
 * wall-time:     0 d,  0 h,  0 min,  0.665 sec
 *  cpu-time:     0 d,  0 h,  0 min,  0.641 sec
 * ratio c/w:     0.963 speedup
 SCF:
 * wall-time:     0 d,  0 h,  0 min,  0.009 sec
 *  cpu-time:     0 d,  0 h,  0 min,  0.016 sec
 * ratio c/w:     1.686 speedup
 ANC optimizer:
 * wall-time:     0 d,  0 h,  0 min,  0.059 sec
 *  cpu-time:     0 d,  0 h,  0 min,  0.047 sec
 * ratio c/w:     0.801 speedup
 analytical hessian:
 * wall-time:     0 d,  0 h,  0 min,  0.560 sec
 *  cpu-time:     0 d,  0 h,  0 min,  0.562 sec
 * ratio c/w:     1.004 speedup

