 Entering Gaussian System
 *********************************************
 Gaussian 98:
 frequency output generated by the xtb code
 *********************************************
                         Standard orientation:
 --------------------------------------------------------------------
  Center     Atomic     Atomic              Coordinates (Angstroms)
  Number     Number      Type              X           Y           Z
 --------------------------------------------------------------------
    1          6             0       -0.961048    0.000009   -0.008788
    2          6             0       -0.277141    1.203985   -0.000113
    3          6             0        1.102176    1.201665    0.018689
    4          6             0        1.821157   -0.000004    0.027247
    5          6             0        1.102170   -1.201662    0.018704
    6          6             0       -0.277154   -1.203968   -0.000093
    7          1             0       -0.822445    2.134634   -0.005407
    8          1             0        1.635520    2.139853    0.024894
    9          1             0        1.635485   -2.139866    0.024928
   10          1             0       -0.822451   -2.134620   -0.005363
   11          7             0        3.185893    0.000001   -0.016606
   12          1             0        3.659273    0.855196    0.216841
   13          1             0        3.659289   -0.855187    0.216838
   14         17             0       -2.710159    0.000025   -0.029043
 --------------------------------------------------------------------
     1 basis functions        1 primitive gaussians
     1 alpha electrons        1 beta electrons
 
 Harmonic frequencies (cm**-1), IR intensities (km*mol⁻¹),
 Raman scattering activities (A**4/amu), Raman depolarization ratios,
 reduced masses (AMU), force constants (mDyne/A) and normal coordinates:
                      1                      2                      3
                        a                      a                      a 
 Frequencies --   112.5683               239.4392               310.8354
 Red. masses --    16.2978                18.2000                11.9722
 Frc consts  --     0.0000                 0.0000                 0.0000
 IR Inten    --     1.0722                 0.0099                 0.4853
 Raman Activ --     0.0000                 0.0000                 0.0000
 Depolar     --     0.0000                 0.0000                 0.0000
 Atom AN      X      Y      Z        X      Y      Z        X      Y      Z
   1   6     0.00  -0.00  -0.24     0.00   0.38  -0.00     0.01  -0.00  -0.57
   2   6     0.00  -0.00  -0.33     0.10   0.33   0.00     0.00   0.00  -0.23
   3   6     0.00  -0.00  -0.24     0.13   0.14   0.00    -0.01   0.00   0.36
   4   6    -0.00  -0.00  -0.01    -0.00   0.05  -0.00    -0.01   0.00   0.29
   5   6     0.00   0.00  -0.24    -0.13   0.14  -0.00    -0.01  -0.00   0.36
   6   6     0.00   0.00  -0.33    -0.10   0.33  -0.00     0.00  -0.00  -0.23
   7   1     0.00   0.00  -0.11     0.07   0.12   0.00    -0.00   0.00  -0.08
   8   1     0.00  -0.00  -0.07     0.07   0.02   0.00    -0.00   0.00   0.18
   9   1     0.00   0.00  -0.07    -0.07   0.02  -0.00    -0.00  -0.00   0.18
  10   1     0.00  -0.00  -0.11    -0.07   0.12  -0.00    -0.00  -0.00  -0.08
  11   7     0.02   0.00   0.54     0.00  -0.37   0.00    -0.03  -0.00  -0.29
  12   1    -0.02  -0.00   0.20     0.09  -0.15   0.01     0.02  -0.00  -0.12
  13   1    -0.02   0.00   0.20    -0.09  -0.15  -0.01     0.02   0.00  -0.12
  14  17    -0.01   0.00   0.46    -0.00  -0.55   0.00     0.02   0.00   0.20
                      4                      5                      6
                        a                      a                      a 
 Frequencies --   349.2073               370.2435               384.1156
 Red. masses --    24.7927                 6.2219                 9.0607
 Frc consts  --     0.0000                 0.0000                 0.0000
 IR Inten    --     0.2555                 5.7835                 5.8285
 Raman Activ --     0.0000                 0.0000                 0.0000
 Depolar     --     0.0000                 0.0000                 0.0000
 Atom AN      X      Y      Z        X      Y      Z        X      Y      Z
   1   6    -0.14   0.00  -0.02     0.00   0.04  -0.00    -0.00  -0.23  -0.00
   2   6     0.11  -0.11  -0.00     0.01   0.03   0.37    -0.14  -0.15   0.12
   3   6     0.15  -0.11   0.02     0.02  -0.04  -0.31    -0.11   0.28  -0.14
   4   6     0.34  -0.00   0.01     0.00  -0.05   0.00    -0.00   0.34  -0.00
   5   6     0.15   0.11   0.02    -0.02  -0.04   0.31     0.11   0.28   0.14
   6   6     0.11   0.11  -0.00    -0.01   0.03  -0.37     0.14  -0.15  -0.12
   7   1     0.08  -0.00   0.00     0.01   0.01   0.23    -0.11  -0.08   0.07
   8   1     0.01  -0.01   0.01     0.02  -0.02  -0.17    -0.10   0.12  -0.08
   9   1     0.01   0.01   0.01    -0.02  -0.02   0.17     0.10   0.12   0.08
  10   1     0.08   0.00   0.00    -0.01   0.01  -0.23     0.11  -0.08  -0.07
  11   7     0.40  -0.00  -0.02    -0.00  -0.01   0.00     0.00  -0.40  -0.00
  12   1     0.10  -0.00   0.01    -0.04   0.13  -0.40     0.20  -0.25   0.09
  13   1     0.10   0.00   0.01     0.04   0.13   0.40    -0.20  -0.25  -0.09
  14  17    -0.74   0.00  -0.00     0.00  -0.02   0.00     0.00   0.12   0.00
                      7                      8                      9
                        a                      a                      a 
 Frequencies --   400.2333               415.7443               476.7664
 Red. masses --     3.7426                 4.8373                 9.2335
 Frc consts  --     0.0000                 0.0000                 0.0000
 IR Inten    --   550.8986                 3.9827                 2.0669
 Raman Activ --     0.0000                 0.0000                 0.0000
 Depolar     --     0.0000                 0.0000                 0.0000
 Atom AN      X      Y      Z        X      Y      Z        X      Y      Z
   1   6    -0.02   0.00  -0.04     0.00   0.07  -0.00    -0.01   0.00   0.52
   2   6    -0.03   0.00   0.02     0.05   0.04   0.19     0.00  -0.00  -0.25
   3   6    -0.02  -0.02   0.04     0.03  -0.10  -0.28     0.00  -0.00   0.00
   4   6    -0.04  -0.00  -0.02     0.00  -0.12   0.00    -0.01   0.00   0.55
   5   6    -0.02   0.02   0.04    -0.03  -0.10   0.28     0.00   0.00   0.00
   6   6    -0.03  -0.00   0.02    -0.05   0.04  -0.19     0.00   0.00  -0.25
   7   1    -0.01   0.00   0.03     0.04   0.03   0.11     0.00   0.00  -0.29
   8   1    -0.01  -0.01   0.03     0.04  -0.05  -0.16     0.00  -0.00  -0.22
   9   1    -0.01   0.01   0.03    -0.04  -0.05   0.16     0.00   0.00  -0.22
  10   1    -0.01  -0.00   0.03    -0.04   0.03  -0.11     0.00  -0.00  -0.29
  11   7     0.17   0.00  -0.41    -0.00   0.24   0.00     0.00  -0.00  -0.20
  12   1    -0.15  -0.07   0.61    -0.04  -0.06   0.53     0.01  -0.01  -0.01
  13   1    -0.15   0.07   0.61     0.04  -0.06  -0.53     0.01   0.01  -0.01
  14  17     0.05  -0.00   0.00    -0.00  -0.03   0.00    -0.00  -0.00  -0.03
                     10                     11                     12
                        a                      a                      a 
 Frequencies --   605.1656               619.3454               653.8029
 Red. masses --    11.3929                14.9045                11.0292
 Frc consts  --     0.0000                 0.0000                 0.0000
 IR Inten    --     0.5886                14.7358                 1.3194
 Raman Activ --     0.0000                 0.0000                 0.0000
 Depolar     --     0.0000                 0.0000                 0.0000
 Atom AN      X      Y      Z        X      Y      Z        X      Y      Z
   1   6     0.00   0.12  -0.00    -0.38   0.00  -0.01     0.00  -0.00  -0.44
   2   6    -0.39   0.27  -0.01    -0.24  -0.17  -0.00    -0.00  -0.00   0.33
   3   6    -0.38  -0.26  -0.00    -0.22  -0.26  -0.00     0.00  -0.00  -0.30
   4   6    -0.00  -0.11   0.00     0.26  -0.00   0.01    -0.01   0.00   0.56
   5   6     0.38  -0.26   0.00    -0.22   0.26  -0.00     0.00   0.00  -0.30
   6   6     0.39   0.27   0.01    -0.24   0.17  -0.00    -0.00   0.00   0.33
   7   1    -0.08   0.09  -0.00    -0.02  -0.02  -0.00     0.00   0.00   0.04
   8   1    -0.07  -0.09   0.00    -0.15  -0.02  -0.00     0.00  -0.00  -0.21
   9   1     0.07  -0.09  -0.00    -0.15   0.02  -0.00     0.00   0.00  -0.21
  10   1     0.08   0.09   0.00    -0.02   0.02  -0.00     0.00  -0.00   0.04
  11   7    -0.00  -0.12  -0.00     0.39  -0.00   0.04    -0.01   0.00  -0.08
  12   1     0.05  -0.06  -0.01     0.12   0.01  -0.06     0.01  -0.01  -0.02
  13   1    -0.05  -0.06   0.01     0.12  -0.01  -0.06     0.01   0.01  -0.02
  14  17    -0.00   0.07  -0.00     0.39  -0.00   0.01    -0.00   0.00   0.01
                     13                     14                     15
                        a                      a                      a 
 Frequencies --   794.3219               843.2975               851.3289
 Red. masses --     5.0338                11.3335                 3.3211
 Frc consts  --     0.0000                 0.0000                 0.0000
 IR Inten    --    47.2332                 5.5099                 0.0511
 Raman Activ --     0.0000                 0.0000                 0.0000
 Depolar     --     0.0000                 0.0000                 0.0000
 Atom AN      X      Y      Z        X      Y      Z        X      Y      Z
   1   6    -0.01   0.00   0.20     0.33  -0.00   0.01    -0.00   0.00   0.00
   2   6     0.01  -0.01  -0.16    -0.24   0.43  -0.01     0.00   0.00  -0.19
   3   6     0.01  -0.00  -0.28    -0.12   0.20  -0.01     0.00  -0.00  -0.26
   4   6    -0.00   0.00   0.34     0.09  -0.00   0.01    -0.00  -0.00   0.00
   5   6     0.01   0.00  -0.28    -0.12  -0.20  -0.01    -0.00  -0.00   0.26
   6   6     0.01   0.01  -0.16    -0.24  -0.43  -0.01    -0.00   0.00   0.19
   7   1    -0.00  -0.00   0.32    -0.18   0.06   0.00    -0.00   0.00   0.35
   8   1    -0.01   0.00   0.47    -0.00   0.04   0.01    -0.01   0.00   0.52
   9   1    -0.01  -0.00   0.47    -0.00  -0.04   0.01     0.01   0.00  -0.52
  10   1    -0.00   0.00   0.32    -0.18  -0.06   0.00     0.00   0.00  -0.35
  11   7    -0.02   0.00  -0.07     0.43  -0.00   0.01    -0.00   0.00  -0.00
  12   1     0.01  -0.01  -0.02     0.14  -0.00  -0.02     0.00  -0.00   0.01
  13   1     0.01   0.01  -0.02     0.14   0.00  -0.02    -0.00  -0.00  -0.01
  14  17     0.00  -0.00  -0.02    -0.08   0.00  -0.00     0.00  -0.00  -0.00
                     16                     17                     18
                        a                      a                      a 
 Frequencies --   894.7665               909.2654               991.1226
 Red. masses --     2.6025                 3.8222                10.0181
 Frc consts  --     0.0000                 0.0000                 0.0000
 IR Inten    --     0.0847                 0.0002                15.9334
 Raman Activ --     0.0000                 0.0000                 0.0000
 Depolar     --     0.0000                 0.0000                 0.0000
 Atom AN      X      Y      Z        X      Y      Z        X      Y      Z
   1   6    -0.00   0.00   0.00     0.00  -0.00   0.00     0.34   0.00   0.00
   2   6     0.00  -0.00  -0.22     0.00  -0.00  -0.29    -0.00   0.22   0.00
   3   6    -0.00  -0.00   0.15    -0.00   0.00   0.21    -0.11  -0.52  -0.00
   4   6    -0.00  -0.00   0.06     0.00   0.00  -0.00     0.05   0.00  -0.00
   5   6    -0.00   0.00   0.15     0.00   0.00  -0.21    -0.11   0.52  -0.00
   6   6     0.00   0.00  -0.22    -0.00  -0.00   0.29    -0.00  -0.22   0.00
   7   1    -0.01  -0.00   0.53    -0.01  -0.00   0.50     0.14   0.13   0.00
   8   1     0.01  -0.00  -0.38     0.01  -0.00  -0.34     0.10  -0.22   0.00
   9   1     0.01   0.00  -0.38    -0.01  -0.00   0.34     0.10   0.22   0.00
  10   1    -0.01   0.00   0.53     0.01  -0.00  -0.50     0.14  -0.13   0.00
  11   7    -0.00  -0.00   0.00     0.00   0.00   0.00    -0.15   0.00   0.00
  12   1     0.00  -0.00  -0.00     0.00  -0.00   0.01    -0.06   0.01  -0.00
  13   1     0.00   0.00  -0.00    -0.00  -0.00  -0.01    -0.06  -0.01  -0.00
  14  17     0.00  -0.00  -0.01    -0.00   0.00  -0.00    -0.07   0.00  -0.00
                     19                     20                     21
                        a                      a                      a 
 Frequencies --  1003.0276              1104.4898              1133.5244
 Red. masses --     4.0727                 7.7013                 2.5265
 Frc consts  --     0.0000                 0.0000                 0.0000
 IR Inten    --     5.6565                64.7888                 4.2451
 Raman Activ --     0.0000                 0.0000                 0.0000
 Depolar     --     0.0000                 0.0000                 0.0000
 Atom AN      X      Y      Z        X      Y      Z        X      Y      Z
   1   6     0.00  -0.06   0.00     0.61   0.00   0.01     0.00  -0.14   0.00
   2   6    -0.09   0.06  -0.00     0.05  -0.27   0.00    -0.09   0.12  -0.00
   3   6    -0.01   0.17  -0.01    -0.13  -0.10  -0.00     0.12   0.10  -0.00
   4   6     0.00  -0.13   0.00     0.05   0.00   0.00     0.00  -0.14   0.00
   5   6     0.01   0.17   0.01    -0.13   0.10  -0.00    -0.12   0.10   0.00
   6   6     0.09   0.06   0.00     0.05   0.27   0.00     0.09   0.12   0.00
   7   1    -0.12  -0.04   0.00    -0.26  -0.24  -0.00    -0.41  -0.19  -0.01
   8   1    -0.05   0.08  -0.00    -0.26   0.10  -0.01     0.43  -0.20   0.01
   9   1     0.05   0.08   0.00    -0.26  -0.10  -0.01    -0.43  -0.20  -0.01
  10   1     0.12  -0.04  -0.00    -0.26   0.24  -0.00     0.41  -0.19   0.01
  11   7    -0.00  -0.38  -0.00    -0.03  -0.00  -0.00    -0.00   0.08  -0.00
  12   1    -0.55   0.18   0.11    -0.03   0.01   0.00     0.08  -0.02  -0.02
  13   1     0.55   0.18  -0.11    -0.03  -0.01   0.00    -0.08  -0.02   0.02
  14  17    -0.00   0.01  -0.00    -0.10   0.00  -0.00    -0.00   0.01  -0.00
                     22                     23                     24
                        a                      a                      a 
 Frequencies --  1185.5030              1265.4359              1309.7547
 Red. masses --     1.6859                 3.2909                 8.3795
 Frc consts  --     0.0000                 0.0000                 0.0000
 IR Inten    --    36.6470                 1.4508               138.7780
 Raman Activ --     0.0000                 0.0000                 0.0000
 Depolar     --     0.0000                 0.0000                 0.0000
 Atom AN      X      Y      Z        X      Y      Z        X      Y      Z
   1   6    -0.07   0.00  -0.00     0.00  -0.29   0.00     0.21   0.00   0.00
   2   6    -0.08  -0.09  -0.00    -0.13  -0.05  -0.00     0.07  -0.22   0.00
   3   6     0.09  -0.06  -0.00    -0.10   0.11  -0.00    -0.23   0.08  -0.00
   4   6    -0.07   0.00  -0.00    -0.00   0.19  -0.00    -0.54   0.00  -0.02
   5   6     0.09   0.06  -0.00     0.10   0.11   0.00    -0.23  -0.08  -0.00
   6   6    -0.08   0.09  -0.00     0.13  -0.05   0.00     0.07   0.22   0.00
   7   1    -0.39  -0.23  -0.01     0.39   0.24   0.01     0.24   0.06   0.00
   8   1     0.45  -0.25   0.01     0.37  -0.20   0.01     0.14  -0.11   0.00
   9   1     0.45   0.25   0.01    -0.37  -0.20  -0.01     0.14   0.11   0.00
  10   1    -0.39   0.23  -0.01    -0.39   0.24  -0.01     0.24  -0.06   0.00
  11   7     0.04  -0.00   0.01     0.00  -0.07   0.00     0.30  -0.00   0.01
  12   1     0.04  -0.02  -0.00    -0.08   0.03   0.01     0.26  -0.10   0.00
  13   1     0.04   0.02  -0.00     0.08   0.03  -0.01     0.26   0.10   0.00
  14  17     0.01  -0.00   0.00    -0.00   0.01  -0.00    -0.03   0.00  -0.00
                     25                     26                     27
                        a                      a                      a 
 Frequencies --  1337.4426              1420.2160              1447.3772
 Red. masses --    11.5733                10.1623                 4.0217
 Frc consts  --     0.0000                 0.0000                 0.0000
 IR Inten    --    14.3862                 8.6696                 7.0264
 Raman Activ --     0.0000                 0.0000                 0.0000
 Depolar     --     0.0000                 0.0000                 0.0000
 Atom AN      X      Y      Z        X      Y      Z        X      Y      Z
   1   6     0.00  -0.46   0.00     0.00   0.28  -0.00     0.17   0.00   0.00
   2   6     0.30   0.22   0.00     0.37  -0.09   0.00    -0.12  -0.16  -0.00
   3   6    -0.28   0.20  -0.00    -0.40  -0.07  -0.01    -0.11   0.15  -0.00
   4   6    -0.00  -0.49  -0.00    -0.00   0.34  -0.00     0.15  -0.00   0.04
   5   6     0.28   0.20   0.00     0.40  -0.07   0.01    -0.11  -0.15  -0.00
   6   6    -0.30   0.22  -0.00    -0.37  -0.09  -0.00    -0.12   0.16  -0.00
   7   1     0.04   0.04   0.00    -0.10  -0.15  -0.00     0.14   0.06   0.00
   8   1    -0.07   0.05  -0.00     0.13  -0.16   0.00     0.17  -0.07   0.01
   9   1     0.07   0.05   0.00    -0.13  -0.16  -0.00     0.17   0.07   0.01
  10   1    -0.04   0.04  -0.00     0.10  -0.15   0.00     0.14  -0.06   0.00
  11   7     0.00   0.06   0.00    -0.00  -0.11  -0.00     0.23   0.00   0.03
  12   1     0.09  -0.03  -0.02    -0.09   0.03   0.02    -0.46   0.30  -0.10
  13   1    -0.09  -0.03   0.02     0.09   0.03  -0.02    -0.46  -0.30  -0.10
  14  17    -0.00  -0.00  -0.00    -0.00  -0.02   0.00    -0.01  -0.00  -0.00
                     28                     29                     30
                        a                      a                      a 
 Frequencies --  1491.7257              1568.5179              1598.7473
 Red. masses --     9.4649                11.6429                11.5149
 Frc consts  --     0.0000                 0.0000                 0.0000
 IR Inten    --   470.6626                 2.2998               259.2146
 Raman Activ --     0.0000                 0.0000                 0.0000
 Depolar     --     0.0000                 0.0000                 0.0000
 Atom AN      X      Y      Z        X      Y      Z        X      Y      Z
   1   6    -0.23  -0.00  -0.00    -0.00   0.53  -0.00     0.15  -0.00   0.00
   2   6     0.30   0.18   0.00    -0.14  -0.30  -0.00    -0.38  -0.09  -0.01
   3   6    -0.01  -0.15  -0.00    -0.15   0.28  -0.00     0.45  -0.14   0.01
   4   6    -0.49   0.00   0.02    -0.00  -0.51   0.00    -0.39  -0.00  -0.00
   5   6    -0.01   0.15  -0.00     0.15   0.28   0.00     0.45   0.14   0.01
   6   6     0.30  -0.18   0.00     0.14  -0.31   0.00    -0.38   0.09  -0.01
   7   1    -0.15  -0.08  -0.00     0.08  -0.02   0.00     0.05   0.06   0.00
   8   1    -0.14   0.03  -0.00     0.08   0.00   0.00    -0.09   0.08  -0.00
   9   1    -0.14  -0.03  -0.00    -0.08   0.00  -0.00    -0.09  -0.08  -0.00
  10   1    -0.15   0.08  -0.00    -0.08  -0.02  -0.00     0.05  -0.06   0.00
  11   7     0.38  -0.00   0.03     0.00   0.06   0.00     0.12   0.00   0.02
  12   1    -0.20   0.18  -0.08     0.06  -0.02  -0.01    -0.02   0.03  -0.03
  13   1    -0.20  -0.18  -0.08    -0.06  -0.02   0.01    -0.02  -0.03  -0.03
  14  17     0.00   0.00   0.00     0.00  -0.01   0.00     0.00   0.00   0.00
                     31                     32                     33
                        a                      a                      a 
 Frequencies --  3084.8786              3087.4407              3099.2335
 Red. masses --     1.7934                 1.7835                 1.8752
 Frc consts  --     0.0000                 0.0000                 0.0000
 IR Inten    --    28.1686                79.4705               102.5236
 Raman Activ --     0.0000                 0.0000                 0.0000
 Depolar     --     0.0000                 0.0000                 0.0000
 Atom AN      X      Y      Z        X      Y      Z        X      Y      Z
   1   6    -0.00   0.00  -0.00    -0.01  -0.00  -0.00    -0.00   0.00  -0.00
   2   6    -0.04   0.06  -0.00    -0.04   0.08  -0.00     0.09  -0.15   0.00
   3   6    -0.09  -0.15  -0.00    -0.08  -0.14  -0.00    -0.04  -0.07  -0.00
   4   6    -0.00  -0.00  -0.00    -0.01   0.00  -0.00     0.00   0.00   0.00
   5   6     0.09  -0.15   0.00    -0.08   0.14  -0.00     0.04  -0.07   0.00
   6   6     0.04   0.06   0.00    -0.04  -0.08  -0.00    -0.09  -0.15  -0.00
   7   1     0.14  -0.25   0.00     0.17  -0.29   0.00    -0.31   0.53  -0.00
   8   1     0.30   0.54   0.00     0.29   0.52   0.00     0.14   0.25   0.00
   9   1    -0.30   0.54  -0.00     0.29  -0.52   0.00    -0.14   0.25  -0.00
  10   1    -0.14  -0.25  -0.00     0.17   0.29   0.00     0.31   0.53   0.00
  11   7     0.00   0.00   0.00     0.00  -0.00   0.00    -0.00   0.00  -0.00
  12   1     0.00  -0.00  -0.00     0.00  -0.00  -0.00    -0.00  -0.00   0.00
  13   1    -0.00  -0.00   0.00     0.00   0.00  -0.00     0.00  -0.00  -0.00
  14  17     0.00  -0.00   0.00     0.00   0.00  -0.00     0.00  -0.00  -0.00
                     34                     35                     36
                        a                      a                      a 
 Frequencies --  3102.7863              3484.8259              3544.5062
 Red. masses --     1.8819                 1.4443                 2.1791
 Frc consts  --     0.0000                 0.0000                 0.0000
 IR Inten    --     5.3239                60.4212                28.2175
 Raman Activ --     0.0000                 0.0000                 0.0000
 Depolar     --     0.0000                 0.0000                 0.0000
 Atom AN      X      Y      Z        X      Y      Z        X      Y      Z
   1   6    -0.01   0.00  -0.00     0.00  -0.00   0.00    -0.00   0.00   0.00
   2   6    -0.09   0.15  -0.00    -0.00   0.00   0.00    -0.00  -0.00  -0.00
   3   6     0.05   0.09   0.00     0.00  -0.00  -0.00     0.00   0.00   0.00
   4   6     0.01  -0.00   0.00    -0.01   0.00  -0.00    -0.00  -0.01  -0.00
   5   6     0.05  -0.09   0.00     0.00   0.00  -0.00    -0.00   0.00  -0.00
   6   6    -0.09  -0.15  -0.00    -0.00  -0.00   0.00     0.00  -0.00   0.00
   7   1     0.30  -0.51   0.00     0.00  -0.00  -0.00     0.00   0.00   0.00
   8   1    -0.16  -0.29  -0.00    -0.00  -0.00  -0.00     0.00   0.00  -0.00
   9   1    -0.16   0.29  -0.00    -0.00   0.00  -0.00    -0.00   0.00   0.00
  10   1     0.30   0.51   0.00     0.00   0.00  -0.00    -0.00   0.00  -0.00
  11   7    -0.00   0.00   0.00    -0.17   0.00  -0.07    -0.00  -0.30  -0.00
  12   1    -0.00  -0.00  -0.00     0.32   0.60   0.14     0.33   0.57   0.16
  13   1    -0.00   0.00  -0.00     0.32  -0.60   0.14    -0.33   0.57  -0.16
  14  17     0.00  -0.00   0.00     0.00  -0.00  -0.00     0.00   0.00  -0.00
