      -----------------------------------------------------------      
     |                   =====================                   |     
     |                           x T B                           |     
     |                   =====================                   |     
     |                         S. Grimme                         |     
     |          Mulliken Center for Theoretical Chemistry        |     
     |                    University of Bonn                     |     
      -----------------------------------------------------------      

   * xtb version 6.4.1 (afa7bdf) compiled by 'ehlert@majestix' on 2021-06-10

   xtb is free software: you can redistribute it and/or modify it under
   the terms of the GNU Lesser General Public License as published by
   the Free Software Foundation, either version 3 of the License, or
   (at your option) any later version.
   
   xtb is distributed in the hope that it will be useful,
   but WITHOUT ANY WARRANTY; without even the implied warranty of
   MERCHANTABILITY or FITNESS FOR A PARTICULAR PURPOSE.  See the
   GNU Lesser General Public License for more details.
   
   Cite this work as:
   * C. Bannwarth, E. Caldeweyher, S. Ehlert, A. Hansen, P. Pracht,
     J. Seibert, S. Spicher, S. Grimme, WIREs Comput. Mol. Sci., 2020, 11,
     e01493. DOI: 10.1002/wcms.1493
   
   for GFN2-xTB:
   * C. Bannwarth, S. Ehlert and S. Grimme., J. Chem. Theory Comput., 2019,
     15, 1652-1671. DOI: 10.1021/acs.jctc.8b01176
   for GFN1-xTB:
   * S. Grimme, C. Bannwarth, P. Shushkov, J. Chem. Theory Comput., 2017,
     13, 1989-2009. DOI: 10.1021/acs.jctc.7b00118
   for GFN0-xTB:
   * P. Pracht, E. Caldeweyher, S. Ehlert, S. Grimme, ChemRxiv, 2019, preprint.
     DOI: 10.26434/chemrxiv.8326202.v1
   for GFN-FF:
   * S. Spicher and S. Grimme, Angew. Chem. Int. Ed., 2020, 59, 15665-15673.
     DOI: 10.1002/anie.202004239
   
   for DFT-D4:
   * E. Caldeweyher, C. Bannwarth and S. Grimme, J. Chem. Phys., 2017,
     147, 034112. DOI: 10.1063/1.4993215
   * E. Caldeweyher, S. Ehlert, A. Hansen, H. Neugebauer, S. Spicher,
     C. Bannwarth and S. Grimme, J. Chem. Phys., 2019, 150, 154122.
     DOI: 10.1063/1.5090222
   * E. Caldeweyher, J.-M. Mewes, S. Ehlert and S. Grimme, Phys. Chem. Chem. Phys.
     2020, 22, 8499-8512. DOI: 10.1039/D0CP00502A
   
   for sTDA-xTB:
   * S. Grimme and C. Bannwarth, J. Chem. Phys., 2016, 145, 054103.
     DOI: 10.1063/1.4959605
   
   in the mass-spec context:
   * V. Asgeirsson, C. Bauer and S. Grimme, Chem. Sci., 2017, 8, 4879.
     DOI: 10.1039/c7sc00601b
   * J. Koopman and S. Grimme, ACS Omega 2019, 4, 12, 15120-15133.
     DOI: 10.1021/acsomega.9b02011
   
   for metadynamics refer to:
   * S. Grimme, J. Chem. Theory Comput., 2019, 155, 2847-2862
     DOI: 10.1021/acs.jctc.9b00143
   
   for SPH calculations refer to:
   * S. Spicher and S. Grimme, J. Chem. Theory Comput., 2021, 17, 1701-1714
     DOI: 10.1021/acs.jctc.0c01306
   
   with help from (in alphabetical order)
   P. Atkinson, C. Bannwarth, F. Bohle, G. Brandenburg, E. Caldeweyher
   M. Checinski, S. Dohm, S. Ehlert, S. Ehrlich, I. Gerasimov, J. Koopman
   C. Lavigne, S. Lehtola, F. März, M. Müller, F. Musil, H. Neugebauer
   J. Pisarek, C. Plett, P. Pracht, J. Seibert, P. Shushkov, S. Spicher
   M. Stahn, M. Steiner, T. Strunk, J. Stückrath, T. Rose, and J. Unsleber
   
 * started run on 2021/11/15 at 09:36:10.592     

           -------------------------------------------------
          |                Calculation Setup                |
           -------------------------------------------------

          program call               : xtb 06_4-ethyl-2-methoxyphenol.xyz --gfn2 --chrg 0 --uhf 0 --alpb water --ohess -P 1
          coordinate file            : 06_4-ethyl-2-methoxyphenol.xyz
          omp threads                :                     1
          number of atoms            :                    23
          number of electrons        :                    60
          charge                     :                     0
          spin                       :                   0.0
          first test random number   :      0.67862484822195

   ID    Z sym.   atoms
    1    6 C      1-6, 11, 17, 20
    2    8 O      7, 10
    3    1 H      8, 9, 12-16, 18, 19, 21-23

           -------------------------------------------------
          |                 G F N 2 - x T B                 |
           -------------------------------------------------

        Reference                      10.1021/acs.jctc.8b01176
      * Hamiltonian:
        H0-scaling (s, p, d)           1.850000    2.230000    2.230000
        zeta-weighting                 0.500000
      * Dispersion:
        s8                             2.700000
        a1                             0.520000
        a2                             5.000000
        s9                             5.000000
      * Repulsion:
        kExp                           1.500000    1.000000
        rExp                           1.000000
      * Coulomb:
        alpha                          2.000000
        third order                    shell-resolved
        anisotropic                    true
        a3                             3.000000
        a5                             4.000000
        cn-shift                       1.200000
        cn-exp                         4.000000
        max-rad                        5.000000

      * Solvation model:               ALPB
        Solvent                        water
        Parameter file                 internal GFN2-xTB/ALPB
        Dielectric constant                8.0200E+01
        Reference state                gsolv [1 M gas/solution]
        Free energy shift                  1.0808E-03 Eh       6.7819E-01 kcal/mol
        Temperature                        2.9815E+02 K
        Density                            1.0000E+00 kg/L
        Solvent mass                       1.8000E+01 g/mol
        Interaction kernel             P16
        Born radius scaling (c1)           1.4744E+00
        Born radii integrator          GBOBC
        Born offset                        0.0000E+00 a0       0.0000E+00 AA
        H-bond correction              true
        Ion screening                  false
        Surface tension                    1.0000E-05 Eh       1.5569E+01 dyn/cm
        Grid points                               230 per atom

          ...................................................
          :                      SETUP                      :
          :.................................................:
          :  # basis functions                  56          :
          :  # atomic orbitals                  56          :
          :  # shells                           34          :
          :  # electrons                        60          :
          :  max. iterations                   250          :
          :  Hamiltonian                  GFN2-xTB          :
          :  restarted?                      false          :
          :  GBSA solvation                   true          :
          :  PC potential                    false          :
          :  electronic temp.          300.0000000     K    :
          :  accuracy                    1.0000000          :
          :  -> integral cutoff          0.2500000E+02      :
          :  -> integral neglect         0.1000000E-07      :
          :  -> SCF convergence          0.1000000E-05 Eh   :
          :  -> wf. convergence          0.1000000E-03 e    :
          :  Broyden damping             0.4000000          :
          ...................................................

 iter      E             dE          RMSdq      gap      omega  full diag
   1    -33.9474258 -0.339474E+02  0.429E+00    4.03       0.0  T
   2    -33.9724059 -0.249801E-01  0.238E+00    4.08       1.0  T
   3    -33.9719913  0.414576E-03  0.620E-01    3.94       1.0  T
   4    -33.9736907 -0.169937E-02  0.236E-01    4.06       1.0  T
   5    -33.9742596 -0.568958E-03  0.874E-02    4.05       1.0  T
   6    -33.9742629 -0.326739E-05  0.474E-02    4.04       1.0  T
   7    -33.9742739 -0.110619E-04  0.138E-02    4.05       1.5  T
   8    -33.9742748 -0.820211E-06  0.573E-03    4.05       3.6  T
   9    -33.9742748 -0.620708E-07  0.282E-03    4.05       7.4  T
  10    -33.9742749 -0.455744E-07  0.925E-04    4.05      22.6  T
  11    -33.9742749 -0.432249E-08  0.421E-04    4.05      49.6  T

   *** convergence criteria satisfied after 11 iterations ***

         #    Occupation            Energy/Eh            Energy/eV
      -------------------------------------------------------------
         1        2.0000           -0.7218354             -19.6421
       ...           ...                  ...                  ...
        24        2.0000           -0.4552562             -12.3882
        25        2.0000           -0.4354707             -11.8498
        26        2.0000           -0.4334493             -11.7948
        27        2.0000           -0.4268826             -11.6161
        28        2.0000           -0.4201035             -11.4316
        29        2.0000           -0.3903402             -10.6217
        30        2.0000           -0.3664792              -9.9724 (HOMO)
        31                         -0.2177372              -5.9249 (LUMO)
        32                         -0.2109177              -5.7394
        33                         -0.0904205              -2.4605
        34                          0.0031098               0.0846
        35                          0.0695868               1.8936
       ...                                ...                  ...
        56                          0.6435660              17.5123
      -------------------------------------------------------------
                  HL-Gap            0.1487420 Eh            4.0475 eV
             Fermi-level           -0.2921082 Eh           -7.9487 eV

 SCC (total)                   0 d,  0 h,  0 min,  0.014 sec
 SCC setup                      ...        0 min,  0.001 sec (  3.959%)
 Dispersion                     ...        0 min,  0.000 sec (  1.248%)
 classical contributions        ...        0 min,  0.000 sec (  0.215%)
 integral evaluation            ...        0 min,  0.002 sec ( 15.668%)
 iterations                     ...        0 min,  0.007 sec ( 45.064%)
 molecular gradient             ...        0 min,  0.005 sec ( 32.523%)
 printout                       ...        0 min,  0.000 sec (  1.165%)

         :::::::::::::::::::::::::::::::::::::::::::::::::::::
         ::                     SUMMARY                     ::
         :::::::::::::::::::::::::::::::::::::::::::::::::::::
         :: total energy             -33.528044169666 Eh    ::
         :: total w/o Gsasa/hb       -33.523807569883 Eh    ::
         :: gradient norm              0.024944306115 Eh/a0 ::
         :: HOMO-LUMO gap              4.047477079683 eV    ::
         ::.................................................::
         :: SCC energy               -33.974274871767 Eh    ::
         :: -> isotropic ES            0.045568145554 Eh    ::
         :: -> anisotropic ES          0.004261876280 Eh    ::
         :: -> anisotropic XC          0.010537957438 Eh    ::
         :: -> dispersion             -0.018073302078 Eh    ::
         :: -> Gsolv                  -0.009551879245 Eh    ::
         ::    -> Gelec               -0.005315279461 Eh    ::
         ::    -> Gsasa                0.000431066431 Eh    ::
         ::    -> Ghb                 -0.005748425913 Eh    ::
         ::    -> Gshift               0.001080759698 Eh    ::
         :: repulsion energy           0.446140039933 Eh    ::
         :: add. restraining           0.000000000000 Eh    ::
         :: total charge               0.000000000000 e     ::
         :::::::::::::::::::::::::::::::::::::::::::::::::::::

      ----------------------------------------------------------- 
     |                   =====================                   |
     |                        A N C O P T                        |
     |                   =====================                   |
     |               Approximate Normal Coordinate               |
     |                Rational Function Optimizer                |
      ----------------------------------------------------------- 

          ...................................................
          :                      SETUP                      :
          :.................................................:
          :   optimization level            normal          :
          :   max. optcycles                   200          :
          :   ANC micro-cycles                  20          :
          :   degrees of freedom                63          :
          :.................................................:
          :   RF solver                   davidson          :
          :   write xtbopt.log                true          :
          :   linear?                        false          :
          :   energy convergence         0.5000000E-05 Eh   :
          :   grad. convergence          0.1000000E-02 Eh/α :
          :   maximium RF displ.         1.0000000          :
          :   Hlow (freq-cutoff)         0.1000000E-01      :
          :   Hmax (freq-cutoff)         5.0000000          :
          :   S6 in model hess.         20.0000000          :
          ...................................................

generating ANC from model Hessian ...
Using Lindh-Hessian (1995)
 Shifting diagonal of input Hessian by   8.449834137585863E-003
 Lowest  eigenvalues of input Hessian
    0.000000    0.000000    0.000000    0.000000    0.000000    0.000000
    0.010000    0.010432    0.012108    0.013218    0.013648    0.016689
    0.017936    0.023464    0.025641    0.027985    0.035673    0.037887
 Highest eigenvalues
    1.521295    1.646262    1.755602    1.879655    2.013711    2.107152
 

........................................................................
.............................. CYCLE    1 ..............................
........................................................................
   1    -33.9742749 -0.339743E+02  0.175E-04    4.05       0.0  T
   2    -33.9742749 -0.734062E-10  0.112E-04    4.05     185.5  T
   3    -33.9742749 -0.909495E-11  0.683E-05    4.05     305.4  T
     SCC iter.                  ...        0 min,  0.003 sec
     gradient                   ...        0 min,  0.005 sec
 * total energy  :   -33.5280442 Eh     change       -0.7015544E-09 Eh
   gradient norm :     0.0249462 Eh/α   predicted     0.0000000E+00 (-100.00%)
   displ. norm   :     0.1484132 α      lambda       -0.1835434E-02
   maximum displ.:     0.0682042 α      in ANC's #7, #13, #8, ...

........................................................................
.............................. CYCLE    2 ..............................
........................................................................
   1    -33.9904250 -0.339904E+02  0.102E-01    4.09       0.0  T
   2    -33.9904331 -0.818727E-05  0.617E-02    4.09       1.0  T
   3    -33.9904287  0.443434E-05  0.231E-02    4.09       1.0  T
   4    -33.9904357 -0.700895E-05  0.347E-03    4.09       6.0  T
   5    -33.9904358 -0.487275E-07  0.204E-03    4.09      10.2  T
   6    -33.9904358 -0.119138E-07  0.119E-03    4.09      17.6  T
   7    -33.9904358 -0.668815E-08  0.409E-04    4.09      51.0  T
   8    -33.9904358 -0.641428E-09  0.205E-04    4.09     101.6  T
     SCC iter.                  ...        0 min,  0.005 sec
     gradient                   ...        0 min,  0.005 sec
 * total energy  :   -33.5291827 Eh     change       -0.1138576E-02 Eh
   gradient norm :     0.0091017 Eh/α   predicted    -0.9379378E-03 ( -17.62%)
   displ. norm   :     0.0852272 α      lambda       -0.2337899E-03
   maximum displ.:     0.0485413 α      in ANC's #7, #2, #6, ...

........................................................................
.............................. CYCLE    3 ..............................
........................................................................
   1    -33.9956882 -0.339957E+02  0.414E-02    4.10       0.0  T
   2    -33.9956911 -0.291724E-05  0.244E-02    4.10       1.0  T
   3    -33.9956911  0.813259E-08  0.136E-02    4.10       1.5  T
   4    -33.9956922 -0.108190E-05  0.205E-03    4.10      10.2  T
   5    -33.9956922 -0.252071E-07  0.114E-03    4.10      18.3  T
   6    -33.9956922 -0.594674E-08  0.639E-04    4.10      32.6  T
   7    -33.9956922 -0.143137E-08  0.254E-04    4.10      81.9  T
     SCC iter.                  ...        0 min,  0.004 sec
     gradient                   ...        0 min,  0.005 sec
 * total energy  :   -33.5293204 Eh     change       -0.1376745E-03 Eh
   gradient norm :     0.0034088 Eh/α   predicted    -0.1179013E-03 ( -14.36%)
   displ. norm   :     0.0549737 α      lambda       -0.4125155E-04
   maximum displ.:     0.0336942 α      in ANC's #2, #7, #3, ...

........................................................................
.............................. CYCLE    4 ..............................
........................................................................
   1    -33.9958817 -0.339959E+02  0.190E-02    4.10       0.0  T
   2    -33.9958823 -0.599232E-06  0.111E-02    4.10       1.9  T
   3    -33.9958823 -0.170721E-07  0.652E-03    4.10       3.2  T
   4    -33.9958825 -0.228176E-06  0.946E-04    4.10      22.0  T
   5    -33.9958825 -0.573969E-08  0.495E-04    4.10      42.2  T
     SCC iter.                  ...        0 min,  0.003 sec
     gradient                   ...        0 min,  0.005 sec
 * total energy  :   -33.5293513 Eh     change       -0.3089378E-04 Eh
   gradient norm :     0.0015444 Eh/α   predicted    -0.2129510E-04 ( -31.07%)
   displ. norm   :     0.0885934 α      lambda       -0.2590591E-04
   maximum displ.:     0.0610314 α      in ANC's #2, #3, #4, ...

........................................................................
.............................. CYCLE    5 ..............................
........................................................................
   1    -33.9947934 -0.339948E+02  0.310E-02    4.10       0.0  T
   2    -33.9947941 -0.645246E-06  0.183E-02    4.10       1.1  T
   3    -33.9947937  0.432011E-06  0.871E-03    4.10       2.4  T
   4    -33.9947944 -0.706489E-06  0.110E-03    4.10      19.0  T
   5    -33.9947944 -0.619801E-08  0.582E-04    4.10      35.8  T
   6    -33.9947944 -0.188391E-08  0.279E-04    4.10      74.6  T
     SCC iter.                  ...        0 min,  0.006 sec
     gradient                   ...        0 min,  0.006 sec
 * total energy  :   -33.5293682 Eh     change       -0.1689082E-04 Eh
   gradient norm :     0.0016313 Eh/α   predicted    -0.1300357E-04 ( -23.01%)
   displ. norm   :     0.0174842 α      lambda       -0.4173919E-05
   maximum displ.:     0.0108810 α      in ANC's #7, #2, #1, ...

........................................................................
.............................. CYCLE    6 ..............................
........................................................................
   1    -33.9948960 -0.339949E+02  0.708E-03    4.10       0.0  T
   2    -33.9948961 -0.103994E-06  0.413E-03    4.10       5.1  T
   3    -33.9948961 -0.165870E-07  0.250E-03    4.10       8.3  T
   4    -33.9948961 -0.282608E-07  0.381E-04    4.10      54.7  T
   5    -33.9948961 -0.943913E-09  0.199E-04    4.10     104.7  T
     SCC iter.                  ...        0 min,  0.003 sec
     gradient                   ...        0 min,  0.005 sec
 * total energy  :   -33.5293729 Eh     change       -0.4693654E-05 Eh
   gradient norm :     0.0006759 Eh/α   predicted    -0.2117404E-05 ( -54.89%)
   displ. norm   :     0.0315315 α      lambda       -0.3256595E-05
   maximum displ.:     0.0214118 α      in ANC's #2, #1, #7, ...

   *** GEOMETRY OPTIMIZATION CONVERGED AFTER 6 ITERATIONS ***

------------------------------------------------------------------------
 total energy gain   :        -0.0013287 Eh       -0.8338 kcal/mol
 total RMSD          :         0.0676056 a0        0.0358 Å
 total power (kW/mol):        -0.5814299 (step)  -45.0302 (real)
------------------------------------------------------------------------

 ANCopt (total)                0 d,  0 h,  0 min,  0.077 sec
 optimizer setup                ...        0 min,  0.000 sec (  0.239%)
 model hessian                  ...        0 min,  0.004 sec (  4.648%)
 ANC generation                 ...        0 min,  0.000 sec (  0.622%)
 coordinate transformation      ...        0 min,  0.000 sec (  0.078%)
 single point calculation       ...        0 min,  0.071 sec ( 91.627%)
 optimization log               ...        0 min,  0.001 sec (  1.796%)
 hessian update                 ...        0 min,  0.000 sec (  0.067%)
 rational function              ...        0 min,  0.000 sec (  0.459%)

================
 final structure:
================
23
 xtb: 6.4.1 (afa7bdf)
C         1.36423440343324    0.19305988031460    0.34935717559274
C         0.30164443453372   -0.70212133966791    0.25747562928556
C        -0.98702868589040   -0.25092073013077    0.04093054874375
C        -1.23021063428167    1.12619244848465   -0.08840503451522
C        -0.17203641876466    2.01332107287157   -0.00256141881188
C         1.11474041520439    1.54831306183825    0.21309381921258
O        -2.49344569197855    1.59642866349359   -0.29493112940560
H        -3.10607532049108    0.84420504696592   -0.32560672216851
H         0.50010729881416   -1.75729950893745    0.36119451858348
O        -2.10725793013752   -1.04765550292668   -0.06281257447970
C        -1.94765406273997   -2.44614689112213    0.04964908648879
H        -1.54438768851468   -2.71963850037141    1.02815132518994
H        -2.94771563268609   -2.85911139757804   -0.06278609096233
H        -1.29866435651498   -2.83344489593891   -0.74015017009894
H         1.92848077689086    2.25415127526202    0.27844556463109
H        -0.37758134982313    3.06685073629366   -0.10550223699083
C         2.76183661131306   -0.32345540698783    0.54741026111456
H         3.37596035382173    0.45190200159554    1.00748371019985
H         2.74548522421361   -1.18727189394991    1.21454503440261
C         3.38500288275621   -0.73210900006091   -0.78955247121018
H         3.42068343015910    0.12027191842602   -1.46376407335512
H         4.39626402659384   -1.10124648337118   -0.63920447099638
H         2.79441491408881   -1.51460255450271   -1.25985428045029
 
 Bond Distances (Angstroems)
 ---------------------------
C1-C2=1.3924         C1-C6=1.3847         C1-C17=1.5031        C2-C1=1.3924         C2-C3=1.3824         C2-H9=1.0787         
C3-C2=1.3824         C3-C4=1.4044         C3-O10=1.3786        C4-C3=1.4044         C4-C5=1.3835         C4-O7=1.3636         
C5-C4=1.3835         C5-C6=1.3851         C5-H16=1.0783        C6-C1=1.3847         C6-C5=1.3851         C6-H15=1.0792        
O7-C4=1.3636         O7-H8=0.9706         H8-O7=0.9706         H9-C2=1.0787         O10-C3=1.3786        O10-C11=1.4121       
C11-O10=1.4121       C11-H12=1.0931       C11-H13=1.0878       C11-H14=1.0931       H12-C11=1.0931       H13-C11=1.0878       
H14-C11=1.0931       H15-C6=1.0792        H16-C5=1.0783        C17-C1=1.5031        C17-H18=1.0909       C17-H19=1.0916       
C17-C20=1.5306       H18-C17=1.0909       H19-C17=1.0916       C20-C17=1.5306       C20-H21=1.0874       C20-H22=1.0870       
C20-H23=1.0873       H21-C20=1.0874       H22-C20=1.0870       H23-C20=1.0873       
 C  H  Rav=1.0868 sigma=0.0054  Rmin=1.0783  Rmax=1.0931    11
 C  C  Rav=1.4208 sigma=0.0563  Rmin=1.3824  Rmax=1.5306     8
 O  H  Rav=0.9706 sigma=0.0000  Rmin=0.9706  Rmax=0.9706     1
 O  C  Rav=1.3848 sigma=0.0202  Rmin=1.3636  Rmax=1.4121     3
 
 selected bond angles (degree)
 --------------------
C6-C1-C2=119.03                C17-C1-C2=119.82               C17-C1-C6=121.12               C3-C2-C1=120.79                
H9-C2-C1=118.82                H9-C2-C3=120.39                C4-C3-C2=119.73                O10-C3-C2=125.50               
O10-C3-C4=114.78               C5-C4-C3=119.38                O7-C4-C3=120.83                O7-C4-C5=119.79                
C6-C5-C4=120.33                H16-C5-C4=118.34               H16-C5-C6=121.33               C5-C6-C1=120.75                
H15-C6-C1=119.89               H15-C6-C5=119.36               H8-O7-C4=108.80                C11-O10-C3=118.33              
 
 selected dihedral angles (degree)
 ---------------------------------
C3-C2-C1-C6=359.64            C3-C2-C1-C17=181.68           H9-C2-C1-C6=179.82            H9-C2-C1-C17=  1.85           
C4-C3-C2-C1=  0.00            C4-C3-C2-H9=179.83            O10-C3-C2-C1=180.16           O10-C3-C2-H9=  0.00           
C5-C4-C3-C2=  0.27            C5-C4-C3-O10=180.14           O7-C4-C3-C2=180.37            O7-C4-C3-O10=  0.23           
C6-C5-C4-C3=359.80            C6-C5-C4-O7=179.70            H16-C5-C4-C3=179.92           H16-C5-C4-O7=359.83           
C5-C6-C1-C2=  0.43            C5-C6-C1-C17=178.37           H15-C6-C1-C2=180.21           H15-C6-C1-C17=358.15          
C1-C6-C5-C4=359.84            C1-C6-C5-H16=179.72           H15-C6-C5-C4=180.06           H15-C6-C5-H16=359.93          
H8-O7-C4-C3=  0.08            H8-O7-C4-C5=180.17            C11-O10-C3-C2=359.56          C11-O10-C3-C4=179.70          
           -------------------------------------------------
          |                Final Singlepoint                |
           -------------------------------------------------

          ...................................................
          :                      SETUP                      :
          :.................................................:
          :  # basis functions                  56          :
          :  # atomic orbitals                  56          :
          :  # shells                           34          :
          :  # electrons                        60          :
          :  max. iterations                   250          :
          :  Hamiltonian                  GFN2-xTB          :
          :  restarted?                      false          :
          :  GBSA solvation                   true          :
          :  PC potential                    false          :
          :  electronic temp.          300.0000000     K    :
          :  accuracy                    1.0000000          :
          :  -> integral cutoff          0.2500000E+02      :
          :  -> integral neglect         0.1000000E-07      :
          :  -> SCF convergence          0.1000000E-05 Eh   :
          :  -> wf. convergence          0.1000000E-03 e    :
          :  Broyden damping             0.4000000          :
          ...................................................

 iter      E             dE          RMSdq      gap      omega  full diag
   1    -33.9948961 -0.339949E+02  0.104E-04    4.10       0.0  T
   2    -33.9948961 -0.201652E-10  0.723E-05    4.10     288.4  T
   3    -33.9948961 -0.944311E-11  0.301E-05    4.10     692.8  T

   *** convergence criteria satisfied after 3 iterations ***

         #    Occupation            Energy/Eh            Energy/eV
      -------------------------------------------------------------
         1        2.0000           -0.7210922             -19.6219
       ...           ...                  ...                  ...
        24        2.0000           -0.4552754             -12.3887
        25        2.0000           -0.4357003             -11.8560
        26        2.0000           -0.4339992             -11.8097
        27        2.0000           -0.4268239             -11.6145
        28        2.0000           -0.4197479             -11.4219
        29        2.0000           -0.3913627             -10.6495
        30        2.0000           -0.3661811              -9.9643 (HOMO)
        31                         -0.2155785              -5.8662 (LUMO)
        32                         -0.2088034              -5.6818
        33                         -0.0857973              -2.3347
        34                          0.0099635               0.2711
        35                          0.0785637               2.1378
       ...                                ...                  ...
        56                          0.6626394              18.0313
      -------------------------------------------------------------
                  HL-Gap            0.1506026 Eh            4.0981 eV
             Fermi-level           -0.2908798 Eh           -7.9152 eV

 SCC (total)                   0 d,  0 h,  0 min,  0.010 sec
 SCC setup                      ...        0 min,  0.000 sec (  4.562%)
 Dispersion                     ...        0 min,  0.000 sec (  0.659%)
 classical contributions        ...        0 min,  0.000 sec (  0.219%)
 integral evaluation            ...        0 min,  0.002 sec ( 20.722%)
 iterations                     ...        0 min,  0.002 sec ( 24.851%)
 molecular gradient             ...        0 min,  0.005 sec ( 47.330%)
 printout                       ...        0 min,  0.000 sec (  1.428%)

         :::::::::::::::::::::::::::::::::::::::::::::::::::::
         ::                     SUMMARY                     ::
         :::::::::::::::::::::::::::::::::::::::::::::::::::::
         :: total energy             -33.529372899609 Eh    ::
         :: total w/o Gsasa/hb       -33.525007081130 Eh    ::
         :: gradient norm              0.000680566141 Eh/a0 ::
         :: HOMO-LUMO gap              4.098106354077 eV    ::
         ::.................................................::
         :: SCC energy               -33.994896126387 Eh    ::
         :: -> isotropic ES            0.045498653597 Eh    ::
         :: -> anisotropic ES          0.003673586661 Eh    ::
         :: -> anisotropic XC          0.009856738495 Eh    ::
         :: -> dispersion             -0.018215711395 Eh    ::
         :: -> Gsolv                  -0.009547403232 Eh    ::
         ::    -> Gelec               -0.005181584753 Eh    ::
         ::    -> Gsasa                0.000412569593 Eh    ::
         ::    -> Ghb                 -0.005859147771 Eh    ::
         ::    -> Gshift               0.001080759698 Eh    ::
         :: repulsion energy           0.465429753341 Eh    ::
         :: add. restraining           0.000000000000 Eh    ::
         :: total charge              -0.000000000000 e     ::
         :::::::::::::::::::::::::::::::::::::::::::::::::::::

           ------------------------------------------------- 
          |                Numerical Hessian                |
           ------------------------------------------------- 
step length          :   0.00500
SCC accuracy         :   0.30000
Hessian scale factor :   1.00000
frozen atoms in %    :   0.00000    0
RMS gradient         :   0.00068
estimated CPU  time      0.03 min
estimated wall time      0.03 min

writing file <hessian>.

 projected vibrational frequencies (cm⁻¹)
eigval :       -0.00    -0.00    -0.00     0.00     0.00     0.00
eigval :       37.63    81.17    98.03   171.14   179.28   210.68
eigval :      223.99   277.60   291.31   356.51   386.35   415.86
eigval :      433.91   453.37   527.47   533.87   603.52   670.33
eigval :      700.81   802.07   821.89   825.05   858.76   904.14
eigval :      921.74  1023.87  1045.14  1068.93  1079.23  1106.27
eigval :     1118.46  1135.33  1148.46  1160.24  1209.42  1232.57
eigval :     1264.80  1288.86  1318.56  1365.25  1392.68  1403.51
eigval :     1437.10  1458.08  1472.48  1482.89  1491.94  1493.24
eigval :     1502.94  1588.12  1602.44  2945.72  2958.76  2973.64
eigval :     2989.51  3031.62  3033.07  3033.89  3041.39  3086.67
eigval :     3100.17  3106.43  3433.20
           -------------------------------------------------
          |                Property Printout                |
           -------------------------------------------------

    * Orbital Energies and Occupations

         #    Occupation            Energy/Eh            Energy/eV
      -------------------------------------------------------------
         1        2.0000           -0.7210920             -19.6219
       ...           ...                  ...                  ...
        18        2.0000           -0.4942978             -13.4505
        19        2.0000           -0.4863129             -13.2332
        20        2.0000           -0.4802363             -13.0679
        21        2.0000           -0.4698657             -12.7857
        22        2.0000           -0.4654449             -12.6654
        23        2.0000           -0.4622672             -12.5789
        24        2.0000           -0.4552752             -12.3887
        25        2.0000           -0.4357002             -11.8560
        26        2.0000           -0.4339992             -11.8097
        27        2.0000           -0.4268238             -11.6145
        28        2.0000           -0.4197478             -11.4219
        29        2.0000           -0.3913626             -10.6495
        30        2.0000           -0.3661810              -9.9643 (HOMO)
        31                         -0.2155785              -5.8662 (LUMO)
        32                         -0.2088033              -5.6818
        33                         -0.0857973              -2.3347
        34                          0.0099637               0.2711
        35                          0.0785637               2.1378
        36                          0.0972058               2.6451
        37                          0.1238899               3.3712
        38                          0.1294907               3.5236
        39                          0.1381517               3.7593
        40                          0.1578729               4.2959
        41                          0.1679117               4.5691
       ...                                ...                  ...
        56                          0.6626394              18.0313
      -------------------------------------------------------------
                  HL-Gap            0.1506026 Eh            4.0981 eV
             Fermi-level           -0.2908798 Eh           -7.9152 eV

     #   Z          covCN         q      C6AA      α(0)
     1   6 C        2.970    -0.000    28.029     8.684
     2   6 C        2.923    -0.080    29.991     8.981
     3   6 C        2.860     0.101    25.765     8.320
     4   6 C        2.846     0.117    25.415     8.262
     5   6 C        2.917    -0.068    29.697     8.936
     6   6 C        2.924    -0.056    29.400     8.892
     7   8 O        1.659    -0.454    21.917     6.320
     8   1 H        0.804     0.370     0.544     1.159
     9   1 H        0.926     0.048     2.347     2.396
    10   8 O        1.704    -0.315    19.248     5.923
    11   6 C        3.640     0.024    20.519     6.514
    12   1 H        0.924     0.052     2.293     2.368
    13   1 H        0.925     0.078     2.003     2.213
    14   1 H        0.924     0.052     2.294     2.368
    15   1 H        0.926     0.044     2.400     2.422
    16   1 H        0.926     0.051     2.303     2.373
    17   6 C        3.807    -0.064    21.727     6.636
    18   1 H        0.924     0.042     2.416     2.431
    19   1 H        0.924     0.044     2.399     2.422
    20   6 C        3.753    -0.108    22.631     6.784
    21   1 H        0.925     0.038     2.471     2.458
    22   1 H        0.925     0.045     2.387     2.416
    23   1 H        0.925     0.039     2.465     2.455

 Mol. C6AA /au·bohr⁶  :       5210.229213
 Mol. C8AA /au·bohr⁸  :     120329.252062
 Mol. α(0) /au        :        111.733634


Wiberg/Mayer (AO) data.
largest (>0.10) Wiberg bond orders for each atom

 ---------------------------------------------------------------------------
     #   Z sym  total        # sym  WBO       # sym  WBO       # sym  WBO
 ---------------------------------------------------------------------------
     1   6 C    3.988 --     6 C    1.426     2 C    1.387    17 C    1.012
     2   6 C    3.984 --     3 C    1.412     1 C    1.387     9 H    0.963
     3   6 C    3.929 --     2 C    1.412     4 C    1.290    10 O    1.029
     4   6 C    3.940 --     5 C    1.402     3 C    1.290     7 O    1.069
     5   6 C    3.986 --     6 C    1.424     4 C    1.402    16 H    0.967
     6   6 C    3.989 --     1 C    1.426     5 C    1.424    15 H    0.968
     7   8 O    2.071 --     4 C    1.069     8 H    0.841
     8   1 H    0.863 --     7 O    0.841
     9   1 H    0.998 --     2 C    0.963
    10   8 O    2.185 --     3 C    1.029    11 C    0.973
    11   6 C    3.933 --    13 H    0.977    14 H    0.977    12 H    0.977
                            10 O    0.973
    12   1 H    0.997 --    11 C    0.977
    13   1 H    0.993 --    11 C    0.977
    14   1 H    0.997 --    11 C    0.977
    15   1 H    0.998 --     6 C    0.968
    16   1 H    0.996 --     5 C    0.967
    17   6 C    3.997 --     1 C    1.012    20 C    1.001    18 H    0.975
                            19 H    0.973
    18   1 H    0.998 --    17 C    0.975
    19   1 H    0.998 --    17 C    0.973
    20   6 C    3.994 --    17 C    1.001    21 H    0.988    23 H    0.988
                            22 H    0.986
    21   1 H    0.999 --    20 C    0.988
    22   1 H    0.997 --    20 C    0.986
    23   1 H    0.998 --    20 C    0.988
 ---------------------------------------------------------------------------

Topologies differ in total number of bonds
Writing topology from bond orders to xtbtopo.mol

molecular dipole:
                 x           y           z       tot (Debye)
 q only:        0.276      -1.096       0.081
   full:        0.251      -1.341       0.089       3.475
molecular quadrupole (traceless):
                xx          xy          yy          xz          yz          zz
 q only:        2.656       5.902       0.776       0.158       0.178      -3.432
  q+dip:        2.865       7.436       1.818       0.587      -0.163      -4.683
   full:        2.207       7.379       0.917       0.106       0.127      -3.124

           -------------------------------------------------
          |                Geometry Summary                 |
           -------------------------------------------------

      molecular mass/u    :      152.1907219
   center of mass at/Å    :       -0.0558994       0.0434033       0.0032764
  moments of inertia/u·Å² :        0.3088912E+03   0.6225337E+03   0.8833199E+03
rotational constants/cm⁻¹ :        0.5457466E-01   0.2707907E-01   0.1908440E-01

 * 22 selected distances

     #   Z          #   Z                                           value/Å
     1   6 C        2   6 C                                       1.3924400
     2   6 C        3   6 C                                       1.3824443
     3   6 C        4   6 C                                       1.4043881
     4   6 C        5   6 C                                       1.3835097
     1   6 C        6   6 C                                       1.3847477
     5   6 C        6   6 C                                       1.3851116
     4   6 C        7   8 O                                       1.3636488
     7   8 O        8   1 H                                       0.9706165 (min)
     2   6 C        9   1 H                                       1.0786779
     3   6 C       10   8 O                                       1.3785726
    10   8 O       11   6 C                                       1.4120550
    11   6 C       12   1 H                                       1.0931094
    11   6 C       13   1 H                                       1.0877980
    11   6 C       14   1 H                                       1.0931469
     6   6 C       15   1 H                                       1.0791903
     5   6 C       16   1 H                                       1.0783183
    17   6 C       18   1 H                                       1.0908688
    17   6 C       19   1 H                                       1.0915654
    17   6 C       20   6 C                                       1.5306219 (max)
    20   6 C       21   1 H                                       1.0873765
    20   6 C       22   1 H                                       1.0869757
    20   6 C       23   1 H                                       1.0873243

 * 4 distinct bonds (by element types)

   Z      Z             #   av. dist./Å        max./Å        min./Å
   1 H    6 C          11     1.0867592     1.0931469     1.0783183
   6 C    6 C           7     1.4090376     1.5306219     1.3824443
   1 H    8 O           1     0.9706165     0.9706165     0.9706165
   6 C    8 O           3     1.3847588     1.4120550     1.3636488

           -------------------------------------------------
          |               Frequency Printout                |
           -------------------------------------------------
 projected vibrational frequencies (cm⁻¹)
eigval :       -0.00    -0.00    -0.00     0.00     0.00     0.00
eigval :       37.63    81.17    98.03   171.14   179.28   210.68
eigval :      223.99   277.60   291.31   356.51   386.35   415.86
eigval :      433.91   453.37   527.47   533.87   603.52   670.33
eigval :      700.81   802.07   821.89   825.05   858.76   904.14
eigval :      921.74  1023.87  1045.14  1068.93  1079.23  1106.27
eigval :     1118.46  1135.33  1148.46  1160.24  1209.42  1232.57
eigval :     1264.80  1288.86  1318.56  1365.25  1392.68  1403.51
eigval :     1437.10  1458.08  1472.48  1482.89  1491.94  1493.24
eigval :     1502.94  1588.12  1602.44  2945.72  2958.76  2973.64
eigval :     2989.51  3031.62  3033.07  3033.89  3041.39  3086.67
eigval :     3100.17  3106.43  3433.20
 reduced masses (amu)
   1: 10.48   2: 11.20   3: 11.17   4: 12.82   5: 11.48   6: 12.25   7:  8.27   8: 10.11
   9: 11.11  10:  9.74  11:  6.45  12:  5.52  13:  5.32  14:  8.94  15: 11.05  16:  9.17
  17: 10.19  18:  2.99  19:  9.78  20: 11.64  21: 10.83  22: 11.70  23: 10.90  24: 11.57
  25: 10.89  26: 10.92  27:  4.05  28:  3.53  29:  3.22  30:  3.37  31:  9.31  32:  7.86
  33:  9.43  34:  4.57  35:  8.10  36:  7.56  37:  3.70  38:  7.07  39:  5.04  40:  4.93
  41:  5.28  42:  3.46  43:  3.53  44: 10.25  45:  5.97  46: 10.49  47:  2.82  48:  3.07
  49: 10.37  50:  1.54  51:  2.07  52:  2.06  53:  9.01  54:  1.58  55:  2.64  56: 11.54
  57: 11.60  58:  1.96  59:  1.44  60:  1.91  61:  1.55  62:  1.96  63:  1.95  64:  1.70
  65:  1.24  66:  1.80  67:  1.82  68:  1.86  69:  1.86
 IR intensities (km·mol⁻¹)
   1:  0.41   2:  0.53   3:  0.49   4:  0.30   5:  0.04   6:  0.42   7:  0.38   8:  3.91
   9:  0.79  10:  1.33  11:  0.47  12:  0.48  13:  0.06  14:  1.51  15:  6.25  16:  2.47
  17:  3.30  18:189.91  19: 19.68  20:  0.85  21:  3.13  22: 25.10  23:  3.69  24:  0.33
  25:  8.44  26: 90.45  27: 33.46  28: 22.36  29:  0.24  30:  1.25  31: 43.22  32:  3.77
  33: 34.19  34:  0.23  35: 13.79  36: 73.42  37:  2.90  38:440.02  39: 48.35  40:118.17
  41:114.57  42:  2.36  43: 29.15  44:280.02  45: 26.07  46: 32.25  47:  1.59  48:  0.06
  49: 57.08  50:  6.92  51: 57.21  52: 11.21  53:278.17  54:  1.71  55: 38.86  56:  9.44
  57: 34.82  58: 48.05  59: 43.40  60: 58.97  61: 62.14  62: 82.11  63: 90.16  64: 16.67
  65: 38.78  66: 53.65  67: 61.88  68: 58.54  69:201.09
 Raman intensities (amu)
   1:  0.00   2:  0.00   3:  0.00   4:  0.00   5:  0.00   6:  0.00   7:  0.00   8:  0.00
   9:  0.00  10:  0.00  11:  0.00  12:  0.00  13:  0.00  14:  0.00  15:  0.00  16:  0.00
  17:  0.00  18:  0.00  19:  0.00  20:  0.00  21:  0.00  22:  0.00  23:  0.00  24:  0.00
  25:  0.00  26:  0.00  27:  0.00  28:  0.00  29:  0.00  30:  0.00  31:  0.00  32:  0.00
  33:  0.00  34:  0.00  35:  0.00  36:  0.00  37:  0.00  38:  0.00  39:  0.00  40:  0.00
  41:  0.00  42:  0.00  43:  0.00  44:  0.00  45:  0.00  46:  0.00  47:  0.00  48:  0.00
  49:  0.00  50:  0.00  51:  0.00  52:  0.00  53:  0.00  54:  0.00  55:  0.00  56:  0.00
  57:  0.00  58:  0.00  59:  0.00  60:  0.00  61:  0.00  62:  0.00  63:  0.00  64:  0.00
  65:  0.00  66:  0.00  67:  0.00  68:  0.00  69:  0.00
 output can be read by thermo (or use thermo option).
 writing <g98.out> molden fake output.
 recommended (thermochemical) frequency scaling factor: 1.0
           -------------------------------------------------
          |             Thermodynamic Functions             |
           -------------------------------------------------

Molecule has no symmetry elements
It seems to be the C1 point group
c1  symmetry found (for desy threshold:  0.10E+00) used in thermo

          ...................................................
          :                      SETUP                      :
          :.................................................:
          :  # frequencies                          63      :
          :  # imaginary freq.                       0      :
          :  linear?                             false      :
          :  only rotor calc.                    false      :
          :  symmetry                               c1      :
          :  rotational number                       1      :
          :  scaling factor                  1.0000000      :
          :  rotor cutoff                   50.0000000 cm⁻¹ :
          :  imag. cutoff                  -20.0000000 cm⁻¹ :
          :.................................................:

    mode    ω/cm⁻¹     T·S(HO)/kcal·mol⁻¹    T·S(FR)/kcal·mol⁻¹   T·S(vib)
   ------------------------------------------------------------------------
       1     37.63    -1.60403 ( 24.30%)    -1.14051 ( 75.70%)    -1.25312
       2     81.17    -1.15157 ( 87.41%)    -0.91291 ( 12.59%)    -1.12153
       3     98.03    -1.04150 ( 93.66%)    -0.85703 (  6.34%)    -1.02980
       4    171.14    -0.72241 ( 99.28%)    -0.69199 (  0.72%)    -0.72219
       5    179.28    -0.69644 ( 99.40%)    -0.67822 (  0.60%)    -0.69633
       6    210.68    -0.60755 ( 99.68%)    -0.63041 (  0.32%)    -0.60762
       7    223.99    -0.57442 ( 99.75%)    -0.61228 (  0.25%)    -0.57452
       8    277.60    -0.46166 ( 99.89%)    -0.54871 (  0.11%)    -0.46175
       9    291.31    -0.43719 ( 99.91%)    -0.53443 (  0.09%)    -0.43727
   ------------------------------------------------------------------------

   temp. (K)  partition function   enthalpy   heat capacity  entropy
                                   cal/mol     cal/K/mol   cal/K/mol   J/K/mol
 298.15  VIB  0.218E+04             5385.102     36.827     32.024
         ROT  0.996E+06              888.752      2.981     30.427
         INT  0.217E+10             6273.855     39.808     62.451
         TR   0.182E+28             1481.254      4.968     40.951
         TOT                        7755.1088    44.7763   103.4023   432.6353

       T/K    H(0)-H(T)+PV         H(T)/Eh          T*S/Eh         G(T)/Eh
   ------------------------------------------------------------------------
    298.15    0.123586E-01    0.200105E+00    0.491298E-01    0.150976E+00
   ------------------------------------------------------------------------

         :::::::::::::::::::::::::::::::::::::::::::::::::::::
         ::                  THERMODYNAMIC                  ::
         :::::::::::::::::::::::::::::::::::::::::::::::::::::
         :: total free energy         -33.378397287949 Eh   ::
         ::.................................................::
         :: total energy              -33.529372899755 Eh   ::
         :: zero point energy           0.187746842144 Eh   ::
         :: G(RRHO) w/o ZPVE           -0.036771230338 Eh   ::
         :: G(RRHO) contrib.            0.150975611806 Eh   ::
         :::::::::::::::::::::::::::::::::::::::::::::::::::::

optimized geometry written to: xtbopt.xyz


           -------------------------------------------------
          | TOTAL ENERGY              -33.529372899755 Eh   |
          | TOTAL ENTHALPY            -33.329267505129 Eh   |
          | TOTAL FREE ENERGY         -33.378397287949 Eh   |
          | GRADIENT NORM               0.000681063093 Eh/α |
          | HOMO-LUMO GAP               4.098104096282 eV   |
           -------------------------------------------------

------------------------------------------------------------------------
 * finished run on 2021/11/15 at 09:36:12.256     
------------------------------------------------------------------------
 total:
 * wall-time:     0 d,  0 h,  0 min,  1.664 sec
 *  cpu-time:     0 d,  0 h,  0 min,  1.641 sec
 * ratio c/w:     0.986 speedup
 SCF:
 * wall-time:     0 d,  0 h,  0 min,  0.015 sec
 *  cpu-time:     0 d,  0 h,  0 min,  0.000 sec
 * ratio c/w:     0.000 speedup
 ANC optimizer:
 * wall-time:     0 d,  0 h,  0 min,  0.089 sec
 *  cpu-time:     0 d,  0 h,  0 min,  0.094 sec
 * ratio c/w:     1.049 speedup
 analytical hessian:
 * wall-time:     0 d,  0 h,  0 min,  1.520 sec
 *  cpu-time:     0 d,  0 h,  0 min,  1.516 sec
 * ratio c/w:     0.997 speedup

