 Entering Gaussian System
 *********************************************
 Gaussian 98:
 frequency output generated by the xtb code
 *********************************************
                         Standard orientation:
 --------------------------------------------------------------------
  Center     Atomic     Atomic              Coordinates (Angstroms)
  Number     Number      Type              X           Y           Z
 --------------------------------------------------------------------
    1          6             0        1.364237    0.193053    0.349352
    2          6             0        0.301642   -0.702122    0.257476
    3          6             0       -0.987030   -0.250915    0.040934
    4          6             0       -1.230205    1.126199   -0.088403
    5          6             0       -0.172026    2.013322   -0.002564
    6          6             0        1.114749    1.548308    0.213087
    7          8             0       -2.493438    1.596441   -0.294925
    8          1             0       -3.106072    0.844221   -0.325597
    9          1             0        0.500099   -1.757301    0.361196
   10          8             0       -2.107264   -1.047645   -0.062803
   11          6             0       -1.947667   -2.446137    0.049660
   12          1             0       -1.544398   -2.719629    1.028161
   13          1             0       -2.947731   -2.859096   -0.062771
   14          1             0       -1.298682   -2.833439   -0.740141
   15          1             0        1.928494    2.254142    0.278435
   16          1             0       -0.377566    3.066853   -0.105506
   17          6             0        2.761837   -0.323469    0.547401
   18          1             0        3.375966    0.451886    1.007471
   19          1             0        2.745483   -1.187284    1.214538
   20          6             0        3.384996   -0.732128   -0.789563
   21          1             0        3.420679    0.120251   -1.463776
   22          1             0        4.396256   -1.101271   -0.639218
   23          1             0        2.794403   -1.514619   -1.259861
 --------------------------------------------------------------------
     1 basis functions        1 primitive gaussians
     1 alpha electrons        1 beta electrons
 
 Harmonic frequencies (cm**-1), IR intensities (km*mol⁻¹),
 Raman scattering activities (A**4/amu), Raman depolarization ratios,
 reduced masses (AMU), force constants (mDyne/A) and normal coordinates:
                      1                      2                      3
                        a                      a                      a 
 Frequencies --    37.6331                81.1702                98.0258
 Red. masses --     8.2715                10.1058                11.1121
 Frc consts  --     0.0000                 0.0000                 0.0000
 IR Inten    --     0.3771                 3.9140                 0.7858
 Raman Activ --     0.0000                 0.0000                 0.0000
 Depolar     --     0.0000                 0.0000                 0.0000
 Atom AN      X      Y      Z        X      Y      Z        X      Y      Z
   1   6     0.03   0.16  -0.02    -0.01  -0.02  -0.02    -0.01  -0.01  -0.25
   2   6     0.07   0.11  -0.03    -0.05   0.00   0.20     0.00  -0.01  -0.31
   3   6     0.05   0.04  -0.01    -0.05   0.01   0.21    -0.02  -0.00  -0.17
   4   6    -0.04   0.03   0.05    -0.01   0.00   0.03    -0.06   0.01   0.04
   5   6    -0.09   0.09   0.07     0.04  -0.03  -0.27    -0.04   0.00  -0.09
   6   6    -0.05   0.15   0.03     0.04  -0.04  -0.30    -0.02  -0.01  -0.23
   7   8    -0.08  -0.04   0.11    -0.02   0.02   0.12    -0.13   0.04   0.49
   8   1    -0.01  -0.02   0.02    -0.01   0.01   0.07    -0.03   0.01   0.14
   9   1     0.04   0.03  -0.02    -0.02   0.00   0.11     0.00  -0.01  -0.11
  10   8     0.11  -0.03  -0.05    -0.09   0.04   0.45    -0.04   0.01  -0.15
  11   6     0.20  -0.03  -0.19     0.04  -0.03  -0.49    -0.08   0.02   0.11
  12   1     0.06  -0.03  -0.06     0.03  -0.18  -0.19     0.00   0.05   0.03
  13   1     0.07  -0.03  -0.07     0.02  -0.01  -0.20    -0.03   0.01   0.09
  14   1     0.07   0.03  -0.07     0.01   0.15  -0.22    -0.05  -0.05   0.03
  15   1    -0.03   0.06   0.01     0.02  -0.02  -0.15    -0.01  -0.00  -0.07
  16   1    -0.04   0.02   0.03     0.02  -0.01  -0.13    -0.02   0.00   0.01
  17   6     0.04   0.20  -0.03    -0.02  -0.01   0.06    -0.03   0.03   0.06
  18   1     0.05   0.12  -0.16    -0.02  -0.00   0.04    -0.05   0.03   0.05
  19   1     0.04   0.16   0.13    -0.02  -0.01   0.01    -0.05   0.03   0.04
  20   6    -0.24  -0.57   0.08     0.10   0.04   0.10     0.39  -0.09   0.30
  21   1    -0.09  -0.27  -0.12     0.04   0.02   0.04     0.17  -0.05   0.06
  22   1    -0.07  -0.16   0.03     0.03   0.02   0.05     0.10  -0.01   0.19
  23   1    -0.11  -0.23   0.18     0.05   0.01   0.01     0.16  -0.05   0.06
                      4                      5                      6
                        a                      a                      a 
 Frequencies --   171.1366               179.2835               210.6845
 Red. masses --     9.7423                 6.4493                 5.5167
 Frc consts  --     0.0000                 0.0000                 0.0000
 IR Inten    --     1.3251                 0.4729                 0.4846
 Raman Activ --     0.0000                 0.0000                 0.0000
 Depolar     --     0.0000                 0.0000                 0.0000
 Atom AN      X      Y      Z        X      Y      Z        X      Y      Z
   1   6     0.03  -0.01  -0.14    -0.04   0.03  -0.08    -0.08  -0.11   0.01
   2   6     0.05  -0.04  -0.25    -0.06   0.08  -0.17    -0.12  -0.02  -0.07
   3   6     0.01  -0.02   0.00    -0.08   0.07  -0.05    -0.12   0.04  -0.05
   4   6    -0.01  -0.02  -0.03    -0.07   0.07  -0.04    -0.04   0.05  -0.03
   5   6    -0.06   0.01   0.22    -0.04   0.04   0.04     0.04  -0.03  -0.02
   6   6    -0.06   0.01   0.24    -0.03   0.05   0.07     0.01  -0.09   0.01
   7   8     0.02  -0.10  -0.33    -0.04   0.18  -0.10     0.05   0.35   0.00
   8   1     0.02  -0.03  -0.10    -0.03   0.06  -0.03    -0.04   0.13  -0.00
   9   1     0.02  -0.02  -0.13    -0.01   0.02  -0.08    -0.05  -0.01  -0.03
  10   8    -0.11   0.09   0.43     0.02  -0.10   0.21    -0.03  -0.12   0.03
  11   6    -0.20   0.03  -0.04     0.43  -0.06   0.06     0.34  -0.07   0.05
  12   1     0.15  -0.07  -0.12     0.27   0.00  -0.04     0.19   0.02  -0.01
  13   1    -0.10   0.06   0.19     0.14  -0.09   0.14     0.12  -0.09   0.10
  14   1    -0.25   0.04  -0.18     0.05   0.04  -0.07     0.07   0.02  -0.03
  15   1    -0.03   0.01   0.14    -0.01   0.02   0.05     0.01  -0.04   0.01
  16   1    -0.02   0.01   0.10    -0.01   0.01   0.03     0.03  -0.01  -0.01
  17   6     0.08   0.10  -0.11    -0.15  -0.23   0.01    -0.09  -0.11   0.04
  18   1    -0.01   0.07  -0.06    -0.02  -0.14   0.09    -0.05  -0.02   0.03
  19   1     0.04   0.06   0.01    -0.13  -0.11  -0.06    -0.01  -0.04  -0.00
  20   6     0.26  -0.06   0.02    -0.01  -0.08   0.03    -0.03   0.05   0.02
  21   1     0.02  -0.07  -0.06     0.30   0.07   0.14    -0.40  -0.06  -0.11
  22   1     0.10   0.08   0.06    -0.12  -0.32   0.07     0.14   0.42  -0.05
  23   1     0.15  -0.11   0.06    -0.16   0.21  -0.18     0.24  -0.27   0.17
                      7                      8                      9
                        a                      a                      a 
 Frequencies --   223.9868               277.6004               291.3110
 Red. masses --     5.3215                 8.9423                11.0461
 Frc consts  --     0.0000                 0.0000                 0.0000
 IR Inten    --     0.0573                 1.5099                 6.2496
 Raman Activ --     0.0000                 0.0000                 0.0000
 Depolar     --     0.0000                 0.0000                 0.0000
 Atom AN      X      Y      Z        X      Y      Z        X      Y      Z
   1   6    -0.01  -0.03  -0.17    -0.01  -0.02   0.00     0.02   0.02  -0.01
   2   6    -0.08   0.03   0.07    -0.11   0.04   0.45     0.00   0.06   0.07
   3   6    -0.09   0.04   0.12    -0.09   0.02   0.21     0.08   0.14   0.04
   4   6    -0.09   0.04   0.08    -0.10   0.02   0.20    -0.02   0.10   0.03
   5   6    -0.08   0.02   0.23    -0.06  -0.01   0.17    -0.03   0.11   0.02
   6   6    -0.05  -0.01   0.02    -0.02  -0.03  -0.16    -0.01   0.03  -0.04
   7   8    -0.04   0.10  -0.20    -0.03   0.12  -0.12    -0.26  -0.54  -0.02
   8   1    -0.02   0.03  -0.08    -0.02   0.04  -0.08     0.06  -0.23  -0.00
   9   1    -0.03   0.01   0.05    -0.04   0.01   0.16    -0.01   0.02   0.02
  10   8    -0.05  -0.02   0.06     0.01  -0.07  -0.37     0.06   0.29  -0.06
  11   6     0.09  -0.01   0.04     0.01  -0.04  -0.03     0.17   0.29   0.00
  12   1    -0.35  -0.02   0.17     0.25   0.06  -0.09     0.09   0.11  -0.01
  13   1     0.10  -0.06  -0.42    -0.03  -0.00   0.29     0.06   0.05   0.04
  14   1     0.37   0.07   0.26    -0.21  -0.09  -0.15     0.03   0.09  -0.02
  15   1    -0.02  -0.00   0.00     0.01  -0.01  -0.15     0.00   0.01  -0.03
  16   1    -0.02   0.01   0.10    -0.01  -0.00   0.04     0.02   0.04   0.01
  17   6     0.01  -0.04  -0.20     0.06   0.03  -0.17    -0.11  -0.33  -0.00
  18   1    -0.01  -0.00  -0.04     0.01   0.03  -0.07     0.00  -0.18   0.10
  19   1    -0.01  -0.00  -0.05     0.04   0.02  -0.03    -0.12  -0.16  -0.08
  20   6     0.32  -0.12  -0.04     0.25  -0.08  -0.07     0.04  -0.07  -0.02
  21   1     0.12  -0.06  -0.04     0.14  -0.04  -0.03    -0.11  -0.02  -0.01
  22   1     0.09  -0.00   0.08     0.05  -0.05   0.05     0.07   0.13  -0.01
  23   1     0.15  -0.07  -0.03     0.08  -0.02  -0.04     0.12  -0.11  -0.00
                     10                     11                     12
                        a                      a                      a 
 Frequencies --   356.5126               386.3477               415.8611
 Red. masses --     9.1697                10.1926                 2.9926
 Frc consts  --     0.0000                 0.0000                 0.0000
 IR Inten    --     2.4652                 3.2977               189.9071
 Raman Activ --     0.0000                 0.0000                 0.0000
 Depolar     --     0.0000                 0.0000                 0.0000
 Atom AN      X      Y      Z        X      Y      Z        X      Y      Z
   1   6     0.08   0.31  -0.09     0.09   0.05   0.27    -0.03   0.01  -0.08
   2   6     0.13   0.25   0.00     0.00   0.15   0.17    -0.02  -0.02   0.06
   3   6     0.05  -0.04   0.04    -0.01   0.06  -0.09     0.01  -0.03  -0.09
   4   6     0.03  -0.02   0.08    -0.12   0.03  -0.34     0.06  -0.02  -0.02
   5   6    -0.05   0.10   0.08    -0.04  -0.05  -0.33    -0.01   0.03   0.19
   6   6     0.08   0.32  -0.11    -0.09   0.06   0.40     0.02   0.01  -0.08
   7   8     0.09   0.07  -0.04    -0.23   0.10   0.14     0.10  -0.05  -0.25
   8   1     0.01   0.03  -0.05    -0.09   0.04   0.24    -0.11   0.06   0.90
   9   1     0.07   0.08   0.01    -0.02   0.04   0.06     0.00  -0.00   0.05
  10   8     0.17  -0.25   0.03     0.05  -0.05   0.01    -0.02   0.01  -0.01
  11   6    -0.27  -0.30  -0.02    -0.07  -0.07  -0.01     0.02   0.01  -0.01
  12   1    -0.11  -0.14  -0.01    -0.02  -0.04  -0.01     0.02   0.01  -0.01
  13   1    -0.12   0.03  -0.02    -0.03   0.02  -0.00     0.01  -0.01   0.00
  14   1    -0.11  -0.15  -0.01    -0.04  -0.04  -0.01     0.00   0.01  -0.01
  15   1     0.01   0.11  -0.06    -0.06   0.05   0.20     0.01  -0.01  -0.03
  16   1    -0.08   0.02   0.03     0.01  -0.01  -0.14    -0.02   0.01   0.11
  17   6    -0.16  -0.26   0.02     0.16  -0.13  -0.12    -0.06   0.02  -0.00
  18   1     0.02  -0.21   0.14     0.08  -0.07  -0.03    -0.02   0.01   0.00
  19   1    -0.21  -0.15  -0.09     0.05  -0.06  -0.07    -0.03   0.01   0.00
  20   6    -0.04  -0.04   0.02     0.24  -0.12  -0.15    -0.03   0.02   0.03
  21   1    -0.11  -0.01   0.01     0.08  -0.04  -0.05    -0.01   0.00   0.01
  22   1     0.03   0.10  -0.00     0.07  -0.01  -0.00    -0.01   0.01   0.01
  23   1     0.08  -0.08   0.01     0.10  -0.05  -0.05    -0.01   0.00   0.01
                     13                     14                     15
                        a                      a                      a 
 Frequencies --   433.9087               453.3660               527.4728
 Red. masses --     9.7836                11.6384                10.8319
 Frc consts  --     0.0000                 0.0000                 0.0000
 IR Inten    --    19.6839                 0.8518                 3.1341
 Raman Activ --     0.0000                 0.0000                 0.0000
 Depolar     --     0.0000                 0.0000                 0.0000
 Atom AN      X      Y      Z        X      Y      Z        X      Y      Z
   1   6    -0.04   0.01  -0.11     0.26  -0.14   0.04    -0.20  -0.19  -0.10
   2   6    -0.06  -0.00   0.33     0.10   0.07  -0.07    -0.14  -0.15   0.03
   3   6     0.06  -0.06  -0.46     0.10   0.15  -0.15     0.08   0.24   0.06
   4   6     0.12  -0.05  -0.47    -0.29   0.12   0.00     0.09   0.32  -0.05
   5   6    -0.02   0.04   0.28    -0.10  -0.12   0.21     0.14   0.31  -0.04
   6   6     0.02   0.01  -0.11    -0.00  -0.21  -0.25    -0.04  -0.15   0.08
   7   8     0.05  -0.02   0.22    -0.40   0.17  -0.13    -0.10  -0.06   0.01
   8   1     0.04  -0.02  -0.18    -0.10   0.04  -0.00     0.07  -0.09   0.03
   9   1    -0.04   0.02   0.32    -0.06   0.00   0.00    -0.12  -0.05   0.01
  10   8    -0.06   0.01   0.16     0.25   0.01   0.11     0.44  -0.12   0.04
  11   6     0.01   0.01   0.01    -0.06  -0.02   0.00    -0.05  -0.23   0.01
  12   1     0.02  -0.02  -0.01    -0.05  -0.06  -0.00    -0.07  -0.14   0.00
  13   1     0.01  -0.01   0.01    -0.05   0.08  -0.02    -0.08   0.09  -0.01
  14   1    -0.00   0.04  -0.02    -0.04  -0.04  -0.00    -0.07  -0.15  -0.01
  15   1     0.01  -0.00   0.01    -0.03  -0.02  -0.12     0.06  -0.13   0.06
  16   1    -0.05   0.02   0.29     0.04  -0.01   0.13     0.13   0.11  -0.00
  17   6    -0.06   0.03  -0.03     0.31  -0.09   0.22    -0.21   0.09  -0.10
  18   1    -0.02   0.01  -0.00     0.09  -0.02   0.05    -0.11   0.09  -0.06
  19   1    -0.03   0.01  -0.01     0.10  -0.03   0.06    -0.00   0.06   0.02
  20   6    -0.01   0.01   0.00    -0.06   0.03   0.02    -0.03   0.03   0.03
  21   1     0.01  -0.00  -0.00    -0.09   0.04   0.04     0.04  -0.00  -0.00
  22   1    -0.00   0.00   0.02    -0.01  -0.02  -0.13    -0.02   0.01   0.08
  23   1     0.00  -0.00  -0.00    -0.09   0.04   0.04     0.02   0.00  -0.01
                     16                     17                     18
                        a                      a                      a 
 Frequencies --   533.8685               603.5171               670.3346
 Red. masses --    11.6993                10.9042                11.5738
 Frc consts  --     0.0000                 0.0000                 0.0000
 IR Inten    --    25.1050                 3.6882                 0.3290
 Raman Activ --     0.0000                 0.0000                 0.0000
 Depolar     --     0.0000                 0.0000                 0.0000
 Atom AN      X      Y      Z        X      Y      Z        X      Y      Z
   1   6     0.08   0.02   0.08    -0.17   0.04   0.60     0.07  -0.02  -0.42
   2   6    -0.21   0.30  -0.08    -0.02  -0.07  -0.04    -0.03   0.06   0.27
   3   6    -0.30   0.11  -0.10     0.09  -0.03  -0.49     0.07  -0.03  -0.46
   4   6     0.05   0.19   0.03     0.01   0.05   0.33    -0.11   0.01   0.52
   5   6     0.31   0.04   0.07    -0.06   0.14   0.01     0.09  -0.16  -0.26
   6   6     0.37   0.05  -0.01    -0.08   0.01  -0.16     0.06   0.01   0.27
   7   8    -0.13  -0.24  -0.02     0.09  -0.01  -0.06    -0.05   0.00  -0.08
   8   1     0.08  -0.16   0.02     0.02  -0.00  -0.02    -0.02   0.00  -0.02
   9   1    -0.08   0.08  -0.03     0.01  -0.03  -0.10    -0.02   0.02   0.13
  10   8    -0.37  -0.19  -0.02     0.00  -0.00   0.14     0.03   0.02   0.06
  11   6    -0.03  -0.22   0.01    -0.00  -0.02   0.02     0.00   0.03   0.00
  12   1     0.01  -0.03   0.01    -0.02  -0.03   0.01    -0.00  -0.01  -0.00
  13   1     0.02  -0.13   0.01     0.00   0.00  -0.03    -0.00   0.02  -0.00
  14   1     0.02  -0.02   0.00     0.01   0.01   0.01    -0.00   0.01  -0.00
  15   1     0.12  -0.00  -0.02     0.02  -0.03  -0.22     0.00   0.01   0.10
  16   1     0.13   0.02   0.03    -0.01   0.03  -0.08     0.03  -0.04  -0.06
  17   6     0.15   0.04   0.05    -0.06  -0.01  -0.10    -0.04   0.03   0.00
  18   1     0.03   0.05  -0.03     0.02  -0.01  -0.05    -0.04   0.02   0.02
  19   1     0.10   0.03   0.04     0.05  -0.02  -0.04    -0.05   0.02   0.01
  20   6     0.02   0.01  -0.01     0.10  -0.05  -0.10    -0.05   0.03   0.05
  21   1    -0.00   0.01  -0.00     0.09  -0.04  -0.05    -0.03   0.01   0.02
  22   1     0.00  -0.02  -0.04     0.02   0.00   0.08    -0.01   0.00  -0.02
  23   1    -0.03   0.02   0.01     0.09  -0.04  -0.06    -0.03   0.01   0.02
                     19                     20                     21
                        a                      a                      a 
 Frequencies --   700.8129               802.0704               821.8918
 Red. masses --    10.8893                10.9227                 4.0478
 Frc consts  --     0.0000                 0.0000                 0.0000
 IR Inten    --     8.4437                90.4520                33.4648
 Raman Activ --     0.0000                 0.0000                 0.0000
 Depolar     --     0.0000                 0.0000                 0.0000
 Atom AN      X      Y      Z        X      Y      Z        X      Y      Z
   1   6    -0.09   0.08   0.16    -0.00   0.05  -0.00    -0.04   0.03   0.15
   2   6    -0.02   0.13  -0.05     0.29  -0.43   0.08     0.10  -0.10  -0.18
   3   6    -0.00  -0.02   0.04     0.18  -0.17   0.03     0.03  -0.05   0.08
   4   6    -0.11  -0.14  -0.09    -0.01   0.10  -0.03    -0.02   0.01   0.17
   5   6     0.19  -0.51   0.12     0.15   0.18   0.03     0.05   0.05  -0.22
   6   6     0.37   0.02   0.00     0.21   0.12   0.04     0.09   0.08  -0.21
   7   8    -0.19   0.03  -0.02    -0.45   0.17  -0.07    -0.10   0.04  -0.06
   8   1    -0.06   0.02  -0.01    -0.08   0.02  -0.01    -0.03   0.01  -0.01
   9   1     0.02   0.04  -0.06     0.19  -0.10   0.01     0.01   0.01   0.38
  10   8     0.26   0.08   0.03    -0.25  -0.02  -0.03    -0.04  -0.00  -0.03
  11   6     0.01   0.13  -0.01    -0.04  -0.07  -0.00    -0.01  -0.01  -0.00
  12   1    -0.02  -0.00  -0.00     0.03   0.05  -0.00     0.01   0.01  -0.00
  13   1    -0.03   0.11  -0.01     0.04  -0.14   0.01     0.00  -0.02   0.02
  14   1    -0.02  -0.00  -0.00     0.03   0.05   0.00     0.00   0.01  -0.00
  15   1     0.09   0.02  -0.05     0.12  -0.03  -0.02    -0.05   0.06   0.46
  16   1     0.05  -0.15   0.00     0.10   0.06  -0.03    -0.06   0.04   0.39
  17   6    -0.35   0.12  -0.18    -0.04   0.12  -0.05    -0.08  -0.14   0.02
  18   1    -0.10   0.06  -0.08     0.01  -0.08   0.14     0.02   0.08  -0.23
  19   1    -0.05   0.05  -0.03    -0.10  -0.07  -0.14     0.10   0.10   0.18
  20   6    -0.07   0.04   0.02    -0.02   0.04   0.01    -0.01  -0.06  -0.03
  21   1     0.08  -0.02  -0.03     0.04  -0.08  -0.10    -0.01   0.11   0.15
  22   1    -0.04   0.04   0.20    -0.03  -0.03   0.06     0.03   0.08   0.03
  23   1     0.08  -0.03  -0.04    -0.03  -0.03   0.10     0.12   0.01  -0.21
                     22                     23                     24
                        a                      a                      a 
 Frequencies --   825.0463               858.7552               904.1382
 Red. masses --     3.5307                 3.2174                 3.3706
 Frc consts  --     0.0000                 0.0000                 0.0000
 IR Inten    --    22.3577                 0.2370                 1.2465
 Raman Activ --     0.0000                 0.0000                 0.0000
 Depolar     --     0.0000                 0.0000                 0.0000
 Atom AN      X      Y      Z        X      Y      Z        X      Y      Z
   1   6    -0.01  -0.02   0.13    -0.00   0.00  -0.01    -0.01   0.00   0.02
   2   6    -0.07   0.07  -0.17     0.06  -0.03  -0.36     0.01  -0.01  -0.09
   3   6    -0.06   0.06   0.04    -0.00  -0.00   0.01    -0.01   0.00   0.08
   4   6    -0.01   0.01   0.10    -0.00  -0.00   0.01     0.00  -0.00  -0.01
   5   6     0.02  -0.09  -0.12    -0.02   0.02   0.17     0.04  -0.02  -0.31
   6   6    -0.04  -0.12  -0.12    -0.02   0.03   0.18    -0.04   0.03   0.32
   7   8     0.11  -0.05  -0.01    -0.01   0.00   0.00    -0.00  -0.00  -0.02
   8   1     0.03  -0.01   0.01    -0.00   0.00   0.01    -0.00   0.00   0.01
   9   1    -0.12   0.03   0.27    -0.10   0.05   0.72    -0.01   0.00   0.05
  10   8     0.05   0.00  -0.01     0.00  -0.00  -0.02     0.01  -0.00  -0.01
  11   6     0.01   0.01   0.00    -0.00   0.00   0.00     0.00   0.00  -0.00
  12   1    -0.00  -0.02  -0.00     0.01  -0.01  -0.01    -0.00  -0.00  -0.00
  13   1    -0.01   0.03   0.01    -0.00   0.00   0.02    -0.00   0.00   0.00
  14   1    -0.01  -0.01  -0.01    -0.01   0.01  -0.01    -0.00   0.00  -0.00
  15   1    -0.05  -0.02   0.26     0.04  -0.02  -0.28     0.10  -0.05  -0.63
  16   1    -0.01  -0.01   0.23     0.05  -0.03  -0.42    -0.09   0.04   0.61
  17   6     0.06   0.25  -0.04    -0.01  -0.02   0.00     0.01  -0.01   0.00
  18   1    -0.00  -0.14   0.35    -0.00   0.01  -0.03    -0.01   0.00  -0.00
  19   1    -0.10  -0.19  -0.33     0.02   0.01   0.02     0.01   0.00   0.01
  20   6     0.03   0.09  -0.03     0.00  -0.01  -0.01     0.00  -0.00   0.01
  21   1     0.09  -0.21  -0.29    -0.00   0.02   0.02    -0.00   0.00   0.00
  22   1    -0.05  -0.11   0.06     0.01   0.01  -0.00     0.00  -0.00  -0.01
  23   1    -0.14  -0.05   0.30     0.01   0.00  -0.02    -0.00   0.00   0.00
                     25                     26                     27
                        a                      a                      a 
 Frequencies --   921.7399              1023.8723              1045.1444
 Red. masses --     9.3052                 7.8644                 9.4291
 Frc consts  --     0.0000                 0.0000                 0.0000
 IR Inten    --    43.2182                 3.7668                34.1911
 Raman Activ --     0.0000                 0.0000                 0.0000
 Depolar     --     0.0000                 0.0000                 0.0000
 Atom AN      X      Y      Z        X      Y      Z        X      Y      Z
   1   6     0.30  -0.02   0.03     0.11  -0.09  -0.06     0.03   0.04   0.05
   2   6     0.29   0.25   0.02    -0.08   0.03  -0.00     0.09   0.23  -0.01
   3   6     0.18   0.14   0.02    -0.16  -0.17  -0.01    -0.09  -0.24   0.00
   4   6    -0.04   0.12  -0.01     0.06  -0.09   0.01     0.06  -0.04   0.01
   5   6    -0.01  -0.05  -0.00    -0.02   0.24  -0.02     0.09   0.17  -0.00
   6   6    -0.24  -0.36   0.00     0.05   0.06   0.01    -0.12  -0.25  -0.00
   7   8     0.11  -0.02   0.02    -0.06  -0.00  -0.01    -0.07   0.01  -0.01
   8   1     0.06  -0.03   0.01    -0.08   0.06  -0.02    -0.06   0.04  -0.01
   9   1     0.09   0.07   0.02    -0.04  -0.00  -0.02     0.19   0.10   0.03
  10   8    -0.24   0.03  -0.04     0.07  -0.27   0.03     0.03  -0.42   0.03
  11   6    -0.06  -0.17   0.00     0.04   0.32  -0.01    -0.02   0.42  -0.03
  12   1     0.04   0.03  -0.00    -0.03  -0.01  -0.00    -0.02   0.03  -0.01
  13   1     0.04  -0.17   0.02    -0.03   0.17  -0.02    -0.02   0.13  -0.01
  14   1     0.03   0.03   0.01    -0.03  -0.01  -0.00    -0.02   0.04   0.00
  15   1    -0.10  -0.06  -0.03     0.06  -0.03   0.00     0.05  -0.17   0.02
  16   1     0.19   0.02   0.03    -0.10   0.05  -0.03     0.26   0.09   0.04
  17   6    -0.17   0.04  -0.17     0.22  -0.15  -0.15    -0.15   0.13   0.08
  18   1     0.03  -0.02  -0.10     0.14  -0.05  -0.12    -0.06   0.02   0.07
  19   1    -0.07   0.01  -0.05     0.25  -0.10  -0.12    -0.21   0.08   0.07
  20   6    -0.22   0.06   0.10    -0.29   0.17   0.19     0.14  -0.10  -0.12
  21   1     0.08   0.01   0.02     0.13  -0.05  -0.05    -0.07   0.03   0.04
  22   1    -0.07   0.10   0.32    -0.11   0.08   0.41     0.06  -0.02  -0.19
  23   1     0.12  -0.05  -0.08     0.09  -0.06   0.03    -0.02   0.03  -0.05
                     28                     29                     30
                        a                      a                      a 
 Frequencies --  1068.9277              1079.2324              1106.2707
 Red. masses --     4.5740                 8.0998                 7.5620
 Frc consts  --     0.0000                 0.0000                 0.0000
 IR Inten    --     0.2308                13.7940                73.4194
 Raman Activ --     0.0000                 0.0000                 0.0000
 Depolar     --     0.0000                 0.0000                 0.0000
 Atom AN      X      Y      Z        X      Y      Z        X      Y      Z
   1   6     0.01  -0.11  -0.01     0.04  -0.01  -0.12    -0.01  -0.04   0.00
   2   6     0.13   0.22   0.01    -0.03  -0.04   0.02    -0.07   0.21  -0.03
   3   6     0.06  -0.03   0.01    -0.01   0.02   0.01    -0.08  -0.15   0.00
   4   6     0.02  -0.10   0.01     0.00   0.01  -0.00     0.12  -0.25   0.03
   5   6    -0.00   0.13  -0.00    -0.01  -0.02   0.01     0.03   0.23  -0.01
   6   6    -0.01   0.01  -0.00     0.01   0.02   0.02     0.03  -0.13   0.01
   7   8    -0.04  -0.02  -0.00     0.01   0.01  -0.00    -0.09  -0.11  -0.00
   8   1    -0.12   0.09  -0.02     0.03  -0.02   0.01    -0.42   0.31  -0.08
   9   1     0.15   0.08   0.01    -0.04  -0.02  -0.03    -0.03   0.06  -0.01
  10   8     0.00   0.06  -0.00    -0.00  -0.01  -0.00     0.09   0.41  -0.01
  11   6    -0.05  -0.06  -0.00     0.01   0.01   0.00     0.02  -0.28   0.02
  12   1     0.03   0.04  -0.00    -0.01  -0.01   0.00     0.02  -0.01   0.01
  13   1     0.02  -0.09   0.01    -0.00   0.02  -0.00     0.01  -0.06   0.01
  14   1     0.02   0.03   0.01    -0.01  -0.01  -0.00     0.02  -0.02   0.00
  15   1     0.01  -0.01   0.00    -0.00   0.02  -0.03     0.22  -0.28   0.05
  16   1    -0.03   0.03  -0.01    -0.03  -0.01  -0.02    -0.08   0.04  -0.01
  17   6    -0.22  -0.31   0.10    -0.06   0.12   0.59     0.06   0.12   0.01
  18   1    -0.45   0.26  -0.02     0.07  -0.01   0.10     0.12  -0.07   0.03
  19   1     0.41  -0.06   0.06     0.02  -0.01   0.10    -0.12   0.02  -0.01
  20   6     0.11   0.16  -0.09    -0.09  -0.04  -0.50    -0.03  -0.06  -0.01
  21   1     0.07  -0.14  -0.25     0.24  -0.09  -0.21    -0.01   0.03   0.06
  22   1    -0.03  -0.13  -0.03    -0.05   0.06   0.27     0.01   0.04   0.01
  23   1    -0.13  -0.00   0.23     0.23  -0.14  -0.24     0.05  -0.01  -0.08
                     31                     32                     33
                        a                      a                      a 
 Frequencies --  1118.4589              1135.3254              1148.4595
 Red. masses --     3.7038                 7.0747                 5.0416
 Frc consts  --     0.0000                 0.0000                 0.0000
 IR Inten    --     2.9006               440.0212                48.3496
 Raman Activ --     0.0000                 0.0000                 0.0000
 Depolar     --     0.0000                 0.0000                 0.0000
 Atom AN      X      Y      Z        X      Y      Z        X      Y      Z
   1   6    -0.00  -0.00  -0.00    -0.03   0.03  -0.01    -0.03   0.08  -0.02
   2   6    -0.00   0.00   0.00    -0.09   0.14  -0.02     0.00  -0.04   0.00
   3   6     0.00   0.00   0.00    -0.15  -0.32   0.00    -0.15  -0.16  -0.01
   4   6     0.00  -0.00  -0.00     0.25  -0.01   0.04     0.08  -0.02   0.01
   5   6    -0.00   0.00   0.00    -0.05  -0.01  -0.01     0.06  -0.03   0.01
   6   6     0.00  -0.00   0.00    -0.07  -0.15   0.00    -0.12  -0.01  -0.02
   7   8    -0.00  -0.00   0.00    -0.22   0.28  -0.05    -0.04   0.02  -0.01
   8   1    -0.00   0.00  -0.00     0.48  -0.38   0.09     0.00  -0.01   0.00
   9   1    -0.00  -0.00  -0.02     0.23   0.09   0.03     0.23   0.03   0.03
  10   8     0.04  -0.01  -0.22     0.19   0.20   0.01    -0.17   0.26  -0.04
  11   6    -0.07   0.02   0.42    -0.07  -0.11  -0.00     0.34  -0.16   0.07
  12   1     0.12  -0.57  -0.12     0.05   0.07  -0.01    -0.13  -0.26   0.03
  13   1     0.03  -0.03  -0.22     0.01  -0.09   0.01    -0.12   0.47  -0.05
  14   1    -0.06   0.56  -0.22     0.05   0.07   0.01    -0.12  -0.24  -0.04
  15   1     0.00  -0.00  -0.00     0.03  -0.11   0.01    -0.18   0.17  -0.04
  16   1    -0.00  -0.00  -0.00    -0.20  -0.04  -0.03     0.37   0.06   0.05
  17   6     0.00   0.00   0.00     0.06  -0.01  -0.00     0.03  -0.06   0.01
  18   1     0.00  -0.00   0.00     0.03  -0.02  -0.00    -0.00   0.00  -0.02
  19   1    -0.00   0.00   0.00     0.02  -0.01  -0.01     0.07  -0.02  -0.00
  20   6    -0.00  -0.00  -0.00    -0.01   0.01   0.01    -0.01   0.03   0.01
  21   1     0.00   0.00   0.00     0.01  -0.00  -0.00     0.01  -0.01  -0.02
  22   1    -0.00   0.00   0.00    -0.00   0.00   0.02    -0.01  -0.01   0.02
  23   1     0.00  -0.00  -0.00     0.01  -0.00   0.00    -0.00  -0.00   0.02
                     34                     35                     36
                        a                      a                      a 
 Frequencies --  1160.2397              1209.4228              1232.5695
 Red. masses --     4.9262                 5.2814                 3.4563
 Frc consts  --     0.0000                 0.0000                 0.0000
 IR Inten    --   118.1670               114.5678                 2.3595
 Raman Activ --     0.0000                 0.0000                 0.0000
 Depolar     --     0.0000                 0.0000                 0.0000
 Atom AN      X      Y      Z        X      Y      Z        X      Y      Z
   1   6     0.17  -0.12   0.06     0.32  -0.14   0.08     0.06   0.14   0.01
   2   6     0.20   0.06   0.02    -0.03   0.02  -0.01    -0.04  -0.03  -0.01
   3   6     0.10   0.16   0.00    -0.02  -0.17   0.01     0.04  -0.10   0.01
   4   6     0.03  -0.04   0.01     0.31  -0.15   0.05    -0.01  -0.02   0.00
   5   6    -0.04   0.05  -0.01     0.10   0.13   0.00    -0.06  -0.01  -0.01
   6   6     0.07  -0.06   0.01    -0.02  -0.00  -0.00    -0.00  -0.02   0.00
   7   8    -0.06   0.07  -0.01    -0.20   0.07  -0.03    -0.00   0.03  -0.00
   8   1     0.12  -0.09   0.02    -0.02   0.00  -0.00     0.04  -0.03   0.01
   9   1    -0.12  -0.02  -0.01    -0.50  -0.09  -0.07    -0.25  -0.06  -0.03
  10   8    -0.29  -0.06  -0.04     0.03   0.04   0.00    -0.01   0.03  -0.00
  11   6     0.24   0.03   0.04    -0.01   0.01  -0.00     0.02  -0.00   0.00
  12   1    -0.11  -0.18   0.02    -0.00   0.03   0.01    -0.01  -0.00   0.01
  13   1    -0.07   0.32  -0.03     0.02  -0.06   0.01     0.01  -0.00   0.00
  14   1    -0.11  -0.18  -0.04    -0.00   0.02  -0.01    -0.01  -0.01  -0.01
  15   1     0.19  -0.21   0.05    -0.35   0.41  -0.08     0.09  -0.12   0.02
  16   1    -0.56  -0.10  -0.07    -0.01   0.03  -0.00     0.12   0.02   0.01
  17   6    -0.13   0.05  -0.04    -0.11   0.07  -0.05    -0.09  -0.23   0.03
  18   1    -0.10   0.04   0.03    -0.17   0.09   0.06     0.31  -0.12  -0.34
  19   1    -0.11   0.04   0.03    -0.16   0.04   0.01    -0.30   0.20   0.33
  20   6     0.04  -0.02  -0.02     0.00  -0.04  -0.03     0.12   0.31  -0.04
  21   1    -0.03   0.01   0.01    -0.02   0.02   0.03     0.06  -0.13  -0.27
  22   1     0.01  -0.01  -0.05     0.01   0.01  -0.01    -0.04  -0.11   0.02
  23   1    -0.02   0.02   0.00    -0.01   0.01  -0.02    -0.11   0.00   0.29
                     37                     38                     39
                        a                      a                      a 
 Frequencies --  1264.7985              1288.8588              1318.5559
 Red. masses --     3.5328                10.2469                 5.9662
 Frc consts  --     0.0000                 0.0000                 0.0000
 IR Inten    --    29.1476               280.0221                26.0685
 Raman Activ --     0.0000                 0.0000                 0.0000
 Depolar     --     0.0000                 0.0000                 0.0000
 Atom AN      X      Y      Z        X      Y      Z        X      Y      Z
   1   6    -0.07   0.13  -0.04    -0.36  -0.04  -0.08     0.20   0.04  -0.04
   2   6     0.10   0.09   0.01     0.16   0.12   0.01    -0.08  -0.02  -0.01
   3   6     0.16  -0.12   0.03     0.10   0.30  -0.00     0.02  -0.15   0.02
   4   6    -0.10  -0.23   0.00     0.35  -0.22   0.06    -0.04   0.14  -0.02
   5   6    -0.10  -0.02  -0.01     0.37  -0.14   0.06    -0.12   0.05  -0.02
   6   6    -0.08   0.17  -0.03    -0.33   0.06  -0.05     0.14  -0.14   0.03
   7   8    -0.02   0.11  -0.01    -0.22   0.05  -0.03     0.04  -0.03   0.01
   8   1     0.20  -0.15   0.04    -0.06   0.02  -0.01    -0.03   0.03  -0.01
   9   1    -0.50  -0.08  -0.07    -0.03   0.02  -0.01    -0.04  -0.01  -0.01
  10   8    -0.06   0.04  -0.01    -0.08  -0.11  -0.00     0.00   0.02  -0.00
  11   6     0.05   0.00   0.01    -0.02   0.06  -0.01     0.02  -0.01   0.00
  12   1    -0.04  -0.02   0.02    -0.01  -0.02  -0.00    -0.00   0.00   0.00
  13   1     0.02  -0.01   0.00     0.02  -0.06   0.01    -0.01   0.02  -0.00
  14   1    -0.03  -0.02  -0.02    -0.02  -0.02   0.00    -0.00   0.00  -0.00
  15   1     0.27  -0.29   0.06    -0.10   0.01  -0.02    -0.05   0.07  -0.02
  16   1     0.39   0.08   0.05    -0.08  -0.08  -0.00    -0.07   0.01  -0.01
  17   6     0.01   0.02   0.03    -0.00  -0.00   0.09    -0.45   0.19   0.17
  18   1    -0.09   0.05   0.06     0.28  -0.13  -0.15     0.35  -0.13  -0.29
  19   1     0.25  -0.11  -0.14     0.14  -0.07  -0.07     0.36  -0.21  -0.29
  20   6    -0.02  -0.10   0.03     0.04   0.02   0.05     0.14  -0.04   0.09
  21   1    -0.02   0.04   0.08     0.00  -0.02  -0.02    -0.08  -0.02  -0.00
  22   1     0.02   0.03  -0.02     0.01  -0.02  -0.06     0.05  -0.04  -0.19
  23   1     0.03   0.00  -0.08    -0.00   0.01   0.02    -0.04   0.07  -0.02
                     40                     41                     42
                        a                      a                      a 
 Frequencies --  1365.2459              1392.6794              1403.5090
 Red. masses --    10.4948                 2.8185                 3.0703
 Frc consts  --     0.0000                 0.0000                 0.0000
 IR Inten    --    32.2459                 1.5936                 0.0648
 Raman Activ --     0.0000                 0.0000                 0.0000
 Depolar     --     0.0000                 0.0000                 0.0000
 Atom AN      X      Y      Z        X      Y      Z        X      Y      Z
   1   6     0.11  -0.45   0.04    -0.01   0.13  -0.01     0.02   0.03  -0.01
   2   6     0.26  -0.02   0.04     0.01  -0.02   0.00    -0.01  -0.02   0.00
   3   6    -0.38   0.16  -0.06     0.04   0.01   0.01    -0.01   0.01  -0.00
   4   6    -0.31  -0.32  -0.02     0.09   0.08   0.01     0.03   0.02   0.00
   5   6     0.12   0.17   0.00     0.02  -0.07   0.01     0.01  -0.03   0.00
   6   6    -0.04   0.28  -0.02    -0.05  -0.03  -0.01    -0.03   0.01  -0.00
   7   8     0.09   0.03   0.01    -0.02  -0.02  -0.00    -0.01  -0.00  -0.00
   8   1     0.16  -0.12   0.03    -0.06   0.04  -0.01    -0.01   0.01  -0.00
   9   1     0.10  -0.01   0.01    -0.09  -0.02  -0.01     0.01  -0.00  -0.00
  10   8     0.12   0.06   0.01    -0.02  -0.13   0.01     0.00  -0.00   0.00
  11   6    -0.04  -0.09   0.00    -0.01  -0.31   0.02    -0.00  -0.00   0.00
  12   1     0.05   0.11   0.01     0.08   0.50   0.11     0.00   0.01   0.00
  13   1    -0.04   0.08  -0.01    -0.21   0.49  -0.06    -0.00   0.00  -0.01
  14   1     0.05   0.11  -0.01     0.12   0.48  -0.15    -0.00   0.00  -0.00
  15   1     0.04   0.03   0.00     0.01  -0.04   0.00     0.01  -0.02  -0.00
  16   1     0.10   0.07   0.01    -0.03  -0.03  -0.00    -0.00  -0.01  -0.00
  17   6    -0.14   0.09   0.01     0.02  -0.03  -0.00    -0.05   0.01   0.01
  18   1     0.13  -0.06  -0.08    -0.03   0.02   0.01     0.05  -0.04   0.01
  19   1    -0.10   0.01  -0.02     0.03  -0.01   0.00     0.09  -0.01  -0.00
  20   6     0.04   0.01  -0.00    -0.01   0.00   0.01     0.20  -0.12  -0.36
  21   1    -0.03  -0.00  -0.01     0.01  -0.00  -0.00    -0.26   0.29   0.34
  22   1     0.01  -0.01  -0.01    -0.00  -0.00  -0.01    -0.03   0.07   0.51
  23   1    -0.03   0.02   0.01     0.01  -0.01  -0.01    -0.35   0.03   0.37
                     43                     44                     45
                        a                      a                      a 
 Frequencies --  1437.1003              1458.0750              1472.4756
 Red. masses --    10.3658                 1.5418                 2.0673
 Frc consts  --     0.0000                 0.0000                 0.0000
 IR Inten    --    57.0762                 6.9214                57.2065
 Raman Activ --     0.0000                 0.0000                 0.0000
 Depolar     --     0.0000                 0.0000                 0.0000
 Atom AN      X      Y      Z        X      Y      Z        X      Y      Z
   1   6     0.34   0.29   0.03    -0.00   0.00   0.00     0.04  -0.02   0.01
   2   6     0.16  -0.27   0.04     0.00   0.00   0.00    -0.08  -0.01  -0.01
   3   6    -0.49   0.04  -0.07    -0.00  -0.00  -0.00     0.09   0.07   0.01
   4   6     0.16   0.22   0.01    -0.00   0.00  -0.00     0.08  -0.08   0.02
   5   6     0.16  -0.19   0.04     0.00   0.00   0.00    -0.08  -0.01  -0.01
   6   6    -0.33   0.10  -0.05    -0.00  -0.00  -0.00     0.03   0.03   0.00
   7   8    -0.00  -0.07   0.01     0.00  -0.00  -0.00    -0.04   0.02  -0.01
   8   1    -0.09   0.06  -0.02    -0.00   0.00   0.00     0.01  -0.01   0.00
   9   1    -0.07  -0.11  -0.00     0.00  -0.00  -0.02    -0.01   0.00  -0.00
  10   8     0.13   0.05   0.01     0.01  -0.00  -0.03    -0.07  -0.01  -0.01
  11   6    -0.04   0.04  -0.01     0.03  -0.01  -0.21    -0.21   0.00  -0.03
  12   1     0.04  -0.06  -0.04    -0.37  -0.30   0.06     0.54  -0.19  -0.28
  13   1     0.02  -0.07   0.01    -0.10   0.04   0.71    -0.12   0.27  -0.03
  14   1     0.03  -0.06   0.06     0.33   0.30   0.11     0.45  -0.14   0.44
  15   1     0.13  -0.23   0.04    -0.00   0.00  -0.00     0.02  -0.01   0.00
  16   1    -0.06  -0.08  -0.00    -0.00  -0.00  -0.00     0.05   0.01   0.01
  17   6    -0.09  -0.05  -0.01    -0.00   0.00   0.00    -0.01   0.01  -0.00
  18   1    -0.12   0.07   0.00     0.00   0.00  -0.00     0.00  -0.00  -0.00
  19   1     0.08  -0.02  -0.02     0.00  -0.00  -0.00    -0.01   0.00  -0.00
  20   6    -0.01  -0.01   0.03     0.00   0.00  -0.00     0.01   0.00   0.00
  21   1     0.00  -0.03  -0.03    -0.00   0.00   0.00    -0.02  -0.01  -0.01
  22   1     0.01   0.01  -0.03    -0.00  -0.01   0.00    -0.00  -0.01   0.01
  23   1     0.01   0.02  -0.04     0.00  -0.00   0.00    -0.00   0.01  -0.01
                     46                     47                     48
                        a                      a                      a 
 Frequencies --  1482.8915              1491.9354              1493.2427
 Red. masses --     2.0600                 9.0114                 1.5752
 Frc consts  --     0.0000                 0.0000                 0.0000
 IR Inten    --    11.2115               278.1702                 1.7140
 Raman Activ --     0.0000                 0.0000                 0.0000
 Depolar     --     0.0000                 0.0000                 0.0000
 Atom AN      X      Y      Z        X      Y      Z        X      Y      Z
   1   6     0.00   0.00   0.02    -0.29   0.06  -0.04    -0.03   0.00  -0.00
   2   6    -0.05  -0.02  -0.01     0.31   0.12   0.04     0.02   0.01   0.00
   3   6     0.02   0.05   0.00    -0.08  -0.36   0.01     0.00  -0.03   0.00
   4   6     0.04  -0.02   0.01    -0.37   0.23  -0.07    -0.03   0.01  -0.00
   5   6    -0.04  -0.02  -0.00     0.35   0.09   0.04     0.02   0.01   0.00
   6   6    -0.00   0.03  -0.00    -0.04  -0.14   0.00     0.00  -0.01   0.00
   7   8    -0.01   0.00  -0.00     0.12  -0.06   0.02     0.01  -0.00   0.00
   8   1    -0.00   0.00  -0.00     0.01  -0.00   0.00     0.00  -0.00   0.00
   9   1     0.06   0.01   0.01    -0.24  -0.03  -0.03    -0.01  -0.00  -0.00
  10   8    -0.00  -0.01   0.00     0.02   0.08  -0.00    -0.00   0.00  -0.00
  11   6     0.00  -0.00   0.00    -0.02   0.00  -0.00    -0.00  -0.00  -0.00
  12   1    -0.01   0.01   0.01     0.11  -0.05  -0.06     0.01  -0.01  -0.01
  13   1     0.00  -0.00  -0.00    -0.02   0.05  -0.01    -0.00   0.01   0.00
  14   1    -0.01   0.00  -0.01     0.08  -0.04   0.09     0.01   0.00   0.01
  15   1     0.04  -0.03   0.01    -0.12   0.08  -0.02    -0.01   0.01  -0.00
  16   1     0.03   0.00   0.00    -0.21  -0.03  -0.03    -0.01  -0.00  -0.00
  17   6     0.17  -0.03   0.23     0.07  -0.03   0.03     0.00  -0.04   0.01
  18   1    -0.14   0.42  -0.50     0.01   0.02  -0.03     0.01   0.01  -0.04
  19   1    -0.42  -0.31  -0.40    -0.01  -0.03  -0.03    -0.03  -0.00   0.01
  20   6    -0.01   0.00  -0.03    -0.06   0.03  -0.06    -0.07  -0.20   0.03
  21   1     0.04   0.06   0.07     0.14   0.10   0.13     0.43  -0.10  -0.09
  22   1    -0.00  -0.01   0.00    -0.01  -0.05  -0.08     0.25   0.66  -0.06
  23   1     0.01  -0.06   0.08     0.09  -0.16   0.16    -0.40   0.26   0.05
                     49                     50                     51
                        a                      a                      a 
 Frequencies --  1502.9441              1588.1223              1602.4366
 Red. masses --     2.6357                11.5434                11.6044
 Frc consts  --     0.0000                 0.0000                 0.0000
 IR Inten    --    38.8586                 9.4441                34.8189
 Raman Activ --     0.0000                 0.0000                 0.0000
 Depolar     --     0.0000                 0.0000                 0.0000
 Atom AN      X      Y      Z        X      Y      Z        X      Y      Z
   1   6    -0.13   0.02  -0.02     0.09   0.51  -0.02    -0.29   0.10  -0.05
   2   6     0.09   0.05   0.01    -0.15  -0.19  -0.01     0.48  -0.00   0.07
   3   6     0.01  -0.13   0.01    -0.03   0.27  -0.02    -0.37   0.19  -0.07
   4   6    -0.13   0.08  -0.02    -0.24  -0.47  -0.00     0.24  -0.02   0.03
   5   6     0.13   0.03   0.02     0.24   0.26   0.02    -0.44   0.01  -0.06
   6   6    -0.02  -0.04   0.00     0.07  -0.37   0.04     0.35  -0.27   0.07
   7   8     0.04  -0.02   0.01     0.01   0.05  -0.00    -0.02  -0.00  -0.00
   8   1     0.00  -0.00   0.00     0.09  -0.07   0.02    -0.01   0.01  -0.00
   9   1    -0.08  -0.01  -0.01     0.03  -0.03   0.01    -0.12  -0.05  -0.01
  10   8     0.00   0.03  -0.00     0.02   0.00   0.00     0.04  -0.01   0.01
  11   6     0.00  -0.00   0.00    -0.01  -0.01  -0.00    -0.02   0.01  -0.00
  12   1     0.02  -0.01  -0.01     0.00   0.00   0.00     0.01  -0.00  -0.01
  13   1    -0.00   0.01  -0.00     0.00  -0.01   0.00     0.00  -0.02   0.00
  14   1     0.01  -0.01   0.01     0.00   0.00  -0.00     0.00   0.00   0.01
  15   1    -0.04   0.03  -0.01    -0.10   0.04  -0.02    -0.05   0.09  -0.01
  16   1    -0.07  -0.01  -0.01    -0.07   0.04  -0.01     0.08   0.04   0.01
  17   6     0.11  -0.03   0.05     0.01  -0.05   0.01     0.05  -0.02   0.01
  18   1    -0.03   0.07  -0.05    -0.06   0.04   0.00     0.01   0.00  -0.01
  19   1    -0.08  -0.04  -0.04     0.06  -0.02  -0.01     0.01  -0.01  -0.01
  20   6     0.17  -0.03   0.10     0.00  -0.00  -0.00     0.01  -0.00  -0.01
  21   1    -0.47  -0.24  -0.32    -0.01   0.00   0.00    -0.01  -0.00  -0.00
  22   1    -0.03   0.00   0.31    -0.00  -0.00   0.00    -0.00   0.00   0.02
  23   1    -0.17   0.38  -0.41    -0.00   0.00  -0.00    -0.01   0.01  -0.00
                     52                     53                     54
                        a                      a                      a 
 Frequencies --  2945.7212              2958.7555              2973.6388
 Red. masses --     1.9550                 1.4405                 1.9102
 Frc consts  --     0.0000                 0.0000                 0.0000
 IR Inten    --    48.0531                43.3993                58.9704
 Raman Activ --     0.0000                 0.0000                 0.0000
 Depolar     --     0.0000                 0.0000                 0.0000
 Atom AN      X      Y      Z        X      Y      Z        X      Y      Z
   1   6    -0.00   0.00   0.00    -0.00   0.00  -0.00     0.00   0.01  -0.00
   2   6     0.00   0.00  -0.00    -0.00   0.00  -0.00     0.00  -0.00   0.00
   3   6     0.00  -0.00  -0.00     0.00   0.00   0.00    -0.00   0.00  -0.00
   4   6    -0.00   0.00   0.00    -0.00  -0.00  -0.00     0.00  -0.00   0.00
   5   6    -0.00   0.00   0.00     0.00  -0.00   0.00     0.00   0.00   0.00
   6   6     0.00   0.00   0.00    -0.00   0.00  -0.00    -0.00  -0.00  -0.00
   7   8     0.00  -0.00  -0.00     0.00  -0.00   0.00    -0.00   0.00  -0.00
   8   1    -0.00   0.00   0.00    -0.00   0.00  -0.00     0.00  -0.00   0.00
   9   1     0.00  -0.00  -0.00    -0.00  -0.01   0.00    -0.00   0.01  -0.00
  10   8    -0.00   0.00   0.01     0.00  -0.02   0.00    -0.00   0.00  -0.00
  11   6    -0.04   0.02   0.29     0.17  -0.09   0.03    -0.00   0.00  -0.00
  12   1    -0.27   0.17  -0.58    -0.24   0.16  -0.64     0.00  -0.00   0.01
  13   1    -0.01   0.00   0.05     0.00  -0.01   0.00    -0.00  -0.00  -0.00
  14   1     0.43  -0.24  -0.48    -0.39   0.23   0.51     0.01  -0.00  -0.01
  15   1     0.00  -0.00  -0.00     0.00   0.00   0.00     0.00   0.00   0.00
  16   1     0.00  -0.00  -0.00    -0.00   0.00  -0.00     0.00  -0.00   0.00
  17   6     0.00  -0.00   0.00     0.00   0.00  -0.00     0.06   0.26  -0.10
  18   1    -0.00  -0.00  -0.00     0.00   0.00  -0.00    -0.21  -0.24  -0.17
  19   1     0.00   0.00  -0.00    -0.00  -0.01   0.01    -0.01  -0.70   0.54
  20   6     0.00   0.00   0.00    -0.00   0.00   0.00    -0.00  -0.02   0.00
  21   1     0.00   0.00   0.00     0.00   0.00  -0.00     0.00   0.06  -0.05
  22   1     0.00   0.00   0.00     0.00  -0.00   0.00    -0.02   0.00  -0.00
  23   1    -0.00  -0.00  -0.00    -0.00  -0.00  -0.00     0.03   0.04   0.03
                     55                     56                     57
                        a                      a                      a 
 Frequencies --  2989.5083              3031.6204              3033.0650
 Red. masses --     1.5481                 1.9565                 1.9483
 Frc consts  --     0.0000                 0.0000                 0.0000
 IR Inten    --    62.1381                82.1074                90.1577
 Raman Activ --     0.0000                 0.0000                 0.0000
 Depolar     --     0.0000                 0.0000                 0.0000
 Atom AN      X      Y      Z        X      Y      Z        X      Y      Z
   1   6    -0.01  -0.00  -0.00    -0.00  -0.00   0.00     0.00  -0.00   0.00
   2   6     0.00  -0.00  -0.00    -0.00   0.00  -0.00     0.00   0.00   0.00
   3   6     0.00   0.00   0.00     0.00   0.00  -0.00     0.00   0.00  -0.00
   4   6     0.00  -0.00   0.00     0.00   0.00   0.00     0.00  -0.00   0.00
   5   6    -0.00   0.00   0.00    -0.00  -0.00   0.00    -0.00   0.00  -0.00
   6   6     0.00   0.00   0.00     0.00   0.00   0.00    -0.00  -0.00   0.00
   7   8    -0.00   0.00  -0.00     0.00   0.00   0.00    -0.00   0.00  -0.00
   8   1    -0.00  -0.00  -0.00    -0.00  -0.00  -0.00    -0.00  -0.00  -0.00
   9   1    -0.00   0.00  -0.00     0.00  -0.00   0.00     0.00  -0.00   0.00
  10   8    -0.00  -0.00  -0.00    -0.00  -0.00  -0.00    -0.00  -0.00  -0.00
  11   6    -0.00   0.00  -0.00    -0.00  -0.00  -0.00    -0.01  -0.01  -0.00
  12   1     0.00  -0.00   0.00    -0.00   0.00  -0.00    -0.00  -0.00  -0.00
  13   1     0.00   0.00   0.00     0.01   0.00   0.00     0.05   0.02   0.01
  14   1     0.00  -0.00  -0.00    -0.00  -0.00   0.00    -0.00  -0.00  -0.00
  15   1    -0.01  -0.01  -0.00    -0.00  -0.00  -0.00    -0.00  -0.00   0.00
  16   1     0.00  -0.00   0.00    -0.00   0.00  -0.00     0.00  -0.00   0.00
  17   6    -0.13  -0.09  -0.15    -0.02  -0.03  -0.00    -0.01   0.01  -0.02
  18   1     0.50   0.65   0.35     0.05   0.07   0.04     0.03   0.04   0.02
  19   1    -0.03  -0.32   0.21    -0.00   0.04  -0.03    -0.00  -0.05   0.04
  20   6     0.03   0.01   0.01    -0.15  -0.25   0.01    -0.23   0.13  -0.13
  21   1     0.01   0.00   0.00    -0.01   0.45  -0.37    -0.05  -0.36   0.27
  22   1    -0.06   0.02  -0.01     0.11  -0.08   0.02     0.76  -0.27   0.11
  23   1    -0.04  -0.06  -0.03     0.41   0.52   0.32     0.09   0.18   0.07
                     58                     59                     60
                        a                      a                      a 
 Frequencies --  3033.8914              3041.3939              3086.6744
 Red. masses --     1.7029                 1.2448                 1.7998
 Frc consts  --     0.0000                 0.0000                 0.0000
 IR Inten    --    16.6737                38.7819                53.6458
 Raman Activ --     0.0000                 0.0000                 0.0000
 Depolar     --     0.0000                 0.0000                 0.0000
 Atom AN      X      Y      Z        X      Y      Z        X      Y      Z
   1   6    -0.00  -0.00   0.00    -0.00   0.00  -0.00     0.01  -0.00   0.00
   2   6    -0.00   0.00  -0.00    -0.00   0.00  -0.00    -0.01   0.03  -0.00
   3   6    -0.00  -0.00  -0.00    -0.00  -0.00  -0.00    -0.00   0.00  -0.00
   4   6     0.00  -0.00   0.00    -0.00   0.00  -0.00     0.00  -0.00   0.00
   5   6    -0.00   0.00  -0.00     0.00  -0.00   0.00     0.01  -0.07   0.01
   6   6     0.00   0.00   0.00    -0.00  -0.00  -0.00     0.19   0.17   0.02
   7   8    -0.00   0.00  -0.00     0.00  -0.00   0.00     0.00   0.00   0.00
   8   1    -0.00  -0.00   0.00     0.00   0.00   0.00    -0.00  -0.00  -0.00
   9   1     0.00  -0.01   0.00     0.00  -0.01   0.00     0.02  -0.10   0.01
  10   8     0.00   0.01  -0.00     0.00   0.00   0.00     0.00   0.00  -0.00
  11   6     0.23   0.09   0.03    -0.00  -0.00   0.00    -0.00  -0.00  -0.00
  12   1     0.04   0.00   0.01    -0.00   0.00  -0.00     0.00  -0.00   0.00
  13   1    -0.89  -0.36  -0.10     0.00   0.00   0.00     0.00   0.00   0.00
  14   1     0.04   0.00  -0.00    -0.00   0.00   0.00     0.00  -0.00  -0.00
  15   1    -0.00  -0.00  -0.00     0.00   0.00   0.00    -0.69  -0.60  -0.05
  16   1     0.00  -0.00   0.00    -0.00   0.00  -0.00    -0.05   0.29  -0.03
  17   6    -0.00  -0.00  -0.00     0.00  -0.00  -0.01     0.00   0.00   0.00
  18   1     0.00   0.00   0.00     0.01   0.01   0.00    -0.01  -0.01  -0.01
  19   1    -0.00  -0.00   0.00     0.00  -0.01   0.00     0.00  -0.00   0.00
  20   6    -0.01   0.01  -0.01     0.04  -0.02  -0.14     0.00   0.00  -0.00
  21   1    -0.00  -0.02   0.01    -0.01  -0.50   0.37    -0.00  -0.00   0.00
  22   1     0.04  -0.02   0.01    -0.47   0.17  -0.10    -0.00   0.00  -0.00
  23   1     0.01   0.02   0.01     0.33   0.42   0.23    -0.00  -0.00  -0.00
                     61                     62                     63
                        a                      a                      a 
 Frequencies --  3100.1674              3106.4280              3433.2030
 Red. masses --     1.8199                 1.8646                 1.8647
 Frc consts  --     0.0000                 0.0000                 0.0000
 IR Inten    --    61.8822                58.5389               201.0863
 Raman Activ --     0.0000                 0.0000                 0.0000
 Depolar     --     0.0000                 0.0000                 0.0000
 Atom AN      X      Y      Z        X      Y      Z        X      Y      Z
   1   6    -0.01   0.01  -0.00    -0.00   0.00  -0.00     0.00   0.00   0.00
   2   6    -0.05   0.26  -0.03    -0.01   0.04  -0.00    -0.00   0.00  -0.00
   3   6     0.01   0.01   0.00     0.00   0.00  -0.00     0.00  -0.00   0.00
   4   6    -0.00  -0.00  -0.00     0.01  -0.00   0.00    -0.01  -0.00  -0.00
   5   6    -0.01   0.05  -0.00     0.05  -0.25   0.02     0.00  -0.00   0.00
   6   6    -0.01  -0.01  -0.00    -0.07  -0.06  -0.01    -0.00  -0.00   0.00
   7   8    -0.00   0.00  -0.00    -0.00   0.00  -0.00    -0.15  -0.19  -0.01
   8   1     0.00  -0.00   0.00    -0.01  -0.01  -0.00     0.63   0.74   0.03
   9   1     0.17  -0.92   0.09     0.03  -0.15   0.01     0.00  -0.00   0.00
  10   8    -0.00   0.00  -0.00    -0.00  -0.00  -0.00    -0.00   0.00  -0.00
  11   6    -0.00   0.00  -0.00    -0.00   0.00  -0.00    -0.00  -0.00  -0.00
  12   1     0.00  -0.00   0.01     0.00  -0.00   0.00     0.00  -0.00   0.00
  13   1     0.01   0.00   0.00    -0.00  -0.00  -0.00    -0.00  -0.00   0.00
  14   1     0.01  -0.00  -0.01     0.00  -0.00  -0.00     0.00  -0.00   0.00
  15   1     0.04   0.03   0.00     0.23   0.20   0.02     0.00   0.00   0.00
  16   1     0.03  -0.18   0.02    -0.16   0.88  -0.08    -0.00   0.01  -0.00
  17   6     0.00   0.00  -0.00    -0.00  -0.00  -0.00    -0.00  -0.00  -0.00
  18   1    -0.00  -0.00  -0.00     0.00   0.00   0.00     0.00   0.00   0.00
  19   1     0.00  -0.01   0.01     0.00  -0.00   0.00     0.00  -0.00   0.00
  20   6     0.00   0.00   0.00    -0.00   0.00   0.00    -0.00  -0.00   0.00
  21   1     0.00   0.00  -0.00    -0.00   0.00  -0.00    -0.00   0.00  -0.00
  22   1    -0.00  -0.00  -0.00     0.00  -0.00   0.00     0.00  -0.00  -0.00
  23   1    -0.00  -0.01  -0.00    -0.00  -0.00  -0.00    -0.00   0.00   0.00
