      -----------------------------------------------------------      
     |                   =====================                   |     
     |                           x T B                           |     
     |                   =====================                   |     
     |                         S. Grimme                         |     
     |          Mulliken Center for Theoretical Chemistry        |     
     |                    University of Bonn                     |     
      -----------------------------------------------------------      

   * xtb version 6.4.1 (afa7bdf) compiled by 'ehlert@majestix' on 2021-06-10

   xtb is free software: you can redistribute it and/or modify it under
   the terms of the GNU Lesser General Public License as published by
   the Free Software Foundation, either version 3 of the License, or
   (at your option) any later version.
   
   xtb is distributed in the hope that it will be useful,
   but WITHOUT ANY WARRANTY; without even the implied warranty of
   MERCHANTABILITY or FITNESS FOR A PARTICULAR PURPOSE.  See the
   GNU Lesser General Public License for more details.
   
   Cite this work as:
   * C. Bannwarth, E. Caldeweyher, S. Ehlert, A. Hansen, P. Pracht,
     J. Seibert, S. Spicher, S. Grimme, WIREs Comput. Mol. Sci., 2020, 11,
     e01493. DOI: 10.1002/wcms.1493
   
   for GFN2-xTB:
   * C. Bannwarth, S. Ehlert and S. Grimme., J. Chem. Theory Comput., 2019,
     15, 1652-1671. DOI: 10.1021/acs.jctc.8b01176
   for GFN1-xTB:
   * S. Grimme, C. Bannwarth, P. Shushkov, J. Chem. Theory Comput., 2017,
     13, 1989-2009. DOI: 10.1021/acs.jctc.7b00118
   for GFN0-xTB:
   * P. Pracht, E. Caldeweyher, S. Ehlert, S. Grimme, ChemRxiv, 2019, preprint.
     DOI: 10.26434/chemrxiv.8326202.v1
   for GFN-FF:
   * S. Spicher and S. Grimme, Angew. Chem. Int. Ed., 2020, 59, 15665-15673.
     DOI: 10.1002/anie.202004239
   
   for DFT-D4:
   * E. Caldeweyher, C. Bannwarth and S. Grimme, J. Chem. Phys., 2017,
     147, 034112. DOI: 10.1063/1.4993215
   * E. Caldeweyher, S. Ehlert, A. Hansen, H. Neugebauer, S. Spicher,
     C. Bannwarth and S. Grimme, J. Chem. Phys., 2019, 150, 154122.
     DOI: 10.1063/1.5090222
   * E. Caldeweyher, J.-M. Mewes, S. Ehlert and S. Grimme, Phys. Chem. Chem. Phys.
     2020, 22, 8499-8512. DOI: 10.1039/D0CP00502A
   
   for sTDA-xTB:
   * S. Grimme and C. Bannwarth, J. Chem. Phys., 2016, 145, 054103.
     DOI: 10.1063/1.4959605
   
   in the mass-spec context:
   * V. Asgeirsson, C. Bauer and S. Grimme, Chem. Sci., 2017, 8, 4879.
     DOI: 10.1039/c7sc00601b
   * J. Koopman and S. Grimme, ACS Omega 2019, 4, 12, 15120-15133.
     DOI: 10.1021/acsomega.9b02011
   
   for metadynamics refer to:
   * S. Grimme, J. Chem. Theory Comput., 2019, 155, 2847-2862
     DOI: 10.1021/acs.jctc.9b00143
   
   for SPH calculations refer to:
   * S. Spicher and S. Grimme, J. Chem. Theory Comput., 2021, 17, 1701-1714
     DOI: 10.1021/acs.jctc.0c01306
   
   with help from (in alphabetical order)
   P. Atkinson, C. Bannwarth, F. Bohle, G. Brandenburg, E. Caldeweyher
   M. Checinski, S. Dohm, S. Ehlert, S. Ehrlich, I. Gerasimov, J. Koopman
   C. Lavigne, S. Lehtola, F. März, M. Müller, F. Musil, H. Neugebauer
   J. Pisarek, C. Plett, P. Pracht, J. Seibert, P. Shushkov, S. Spicher
   M. Stahn, M. Steiner, T. Strunk, J. Stückrath, T. Rose, and J. Unsleber
   
 * started run on 2021/11/15 at 09:36:16.553     

           -------------------------------------------------
          |                Calculation Setup                |
           -------------------------------------------------

          program call               : xtb 19_4-cyanophenol.xyz --gfn2 --chrg 0 --uhf 0 --alpb water --ohess -P 1
          coordinate file            : 19_4-cyanophenol.xyz
          omp threads                :                     1
          number of atoms            :                    14
          number of electrons        :                    44
          charge                     :                     0
          spin                       :                   0.0
          first test random number   :      0.79054980827343

   ID    Z sym.   atoms
    1    6 C      1-6, 13
    2    8 O      7
    3    1 H      8-12
    4    7 N      14

           -------------------------------------------------
          |                 G F N 2 - x T B                 |
           -------------------------------------------------

        Reference                      10.1021/acs.jctc.8b01176
      * Hamiltonian:
        H0-scaling (s, p, d)           1.850000    2.230000    2.230000
        zeta-weighting                 0.500000
      * Dispersion:
        s8                             2.700000
        a1                             0.520000
        a2                             5.000000
        s9                             5.000000
      * Repulsion:
        kExp                           1.500000    1.000000
        rExp                           1.000000
      * Coulomb:
        alpha                          2.000000
        third order                    shell-resolved
        anisotropic                    true
        a3                             3.000000
        a5                             4.000000
        cn-shift                       1.200000
        cn-exp                         4.000000
        max-rad                        5.000000

      * Solvation model:               ALPB
        Solvent                        water
        Parameter file                 internal GFN2-xTB/ALPB
        Dielectric constant                8.0200E+01
        Reference state                gsolv [1 M gas/solution]
        Free energy shift                  1.0808E-03 Eh       6.7819E-01 kcal/mol
        Temperature                        2.9815E+02 K
        Density                            1.0000E+00 kg/L
        Solvent mass                       1.8000E+01 g/mol
        Interaction kernel             P16
        Born radius scaling (c1)           1.4744E+00
        Born radii integrator          GBOBC
        Born offset                        0.0000E+00 a0       0.0000E+00 AA
        H-bond correction              true
        Ion screening                  false
        Surface tension                    1.0000E-05 Eh       1.5569E+01 dyn/cm
        Grid points                               230 per atom

          ...................................................
          :                      SETUP                      :
          :.................................................:
          :  # basis functions                  41          :
          :  # atomic orbitals                  41          :
          :  # shells                           23          :
          :  # electrons                        44          :
          :  max. iterations                   250          :
          :  Hamiltonian                  GFN2-xTB          :
          :  restarted?                      false          :
          :  GBSA solvation                   true          :
          :  PC potential                    false          :
          :  electronic temp.          300.0000000     K    :
          :  accuracy                    1.0000000          :
          :  -> integral cutoff          0.2500000E+02      :
          :  -> integral neglect         0.1000000E-07      :
          :  -> SCF convergence          0.1000000E-05 Eh   :
          :  -> wf. convergence          0.1000000E-03 e    :
          :  Broyden damping             0.4000000          :
          ...................................................

 iter      E             dE          RMSdq      gap      omega  full diag
   1    -24.8829862 -0.248830E+02  0.631E+00    3.71       0.0  T
   2    -24.8923892 -0.940308E-02  0.382E+00    3.59       1.0  T
   3    -24.8666538  0.257355E-01  0.176E+00    3.52       1.0  T
   4    -24.8986859 -0.320322E-01  0.359E-01    3.51       1.0  T
   5    -24.8993913 -0.705371E-03  0.144E-01    3.50       1.0  T
   6    -24.8994146 -0.233277E-04  0.460E-02    3.53       1.0  T
   7    -24.8994191 -0.446229E-05  0.217E-02    3.52       1.2  T
   8    -24.8994216 -0.252134E-05  0.628E-03    3.52       4.3  T
   9    -24.8994217 -0.110123E-06  0.326E-03    3.52       8.2  T
  10    -24.8994217 -0.119858E-07  0.966E-04    3.52      27.7  T
  11    -24.8994217 -0.509025E-08  0.387E-04    3.52      69.0  T

   *** convergence criteria satisfied after 11 iterations ***

         #    Occupation            Energy/Eh            Energy/eV
      -------------------------------------------------------------
         1        2.0000           -0.7208455             -19.6152
       ...           ...                  ...                  ...
        16        2.0000           -0.4751415             -12.9293
        17        2.0000           -0.4719748             -12.8431
        18        2.0000           -0.4647652             -12.6469
        19        2.0000           -0.4366322             -11.8814
        20        2.0000           -0.4283440             -11.6558
        21        2.0000           -0.4234691             -11.5232
        22        2.0000           -0.3985991             -10.8464 (HOMO)
        23                         -0.2692670              -7.3271 (LUMO)
        24                         -0.2423173              -6.5938
        25                         -0.2185413              -5.9468
        26                         -0.1742324              -4.7411
        27                         -0.0907552              -2.4696
       ...                                ...                  ...
        41                          1.0865948              29.5677
      -------------------------------------------------------------
                  HL-Gap            0.1293321 Eh            3.5193 eV
             Fermi-level           -0.3339330 Eh           -9.0868 eV

 SCC (total)                   0 d,  0 h,  0 min,  0.008 sec
 SCC setup                      ...        0 min,  0.000 sec (  4.365%)
 Dispersion                     ...        0 min,  0.000 sec (  1.241%)
 classical contributions        ...        0 min,  0.000 sec (  0.226%)
 integral evaluation            ...        0 min,  0.001 sec ( 15.695%)
 iterations                     ...        0 min,  0.004 sec ( 47.024%)
 molecular gradient             ...        0 min,  0.002 sec ( 29.343%)
 printout                       ...        0 min,  0.000 sec (  1.844%)

         :::::::::::::::::::::::::::::::::::::::::::::::::::::
         ::                     SUMMARY                     ::
         :::::::::::::::::::::::::::::::::::::::::::::::::::::
         :: total energy             -24.490206399899 Eh    ::
         :: total w/o Gsasa/hb       -24.479607712658 Eh    ::
         :: gradient norm              0.037053729814 Eh/a0 ::
         :: HOMO-LUMO gap              3.519306373776 eV    ::
         ::.................................................::
         :: SCC energy               -24.899421727260 Eh    ::
         :: -> isotropic ES            0.040321955095 Eh    ::
         :: -> anisotropic ES          0.003546706186 Eh    ::
         :: -> anisotropic XC          0.023514496621 Eh    ::
         :: -> dispersion             -0.011180762700 Eh    ::
         :: -> Gsolv                  -0.019568414552 Eh    ::
         ::    -> Gelec               -0.008969727311 Eh    ::
         ::    -> Gsasa               -0.004940686767 Eh    ::
         ::    -> Ghb                 -0.006738760172 Eh    ::
         ::    -> Gshift               0.001080759698 Eh    ::
         :: repulsion energy           0.409212063543 Eh    ::
         :: add. restraining           0.000000000000 Eh    ::
         :: total charge              -0.000000000000 e     ::
         :::::::::::::::::::::::::::::::::::::::::::::::::::::

      ----------------------------------------------------------- 
     |                   =====================                   |
     |                        A N C O P T                        |
     |                   =====================                   |
     |               Approximate Normal Coordinate               |
     |                Rational Function Optimizer                |
      ----------------------------------------------------------- 

          ...................................................
          :                      SETUP                      :
          :.................................................:
          :   optimization level            normal          :
          :   max. optcycles                   200          :
          :   ANC micro-cycles                  20          :
          :   degrees of freedom                36          :
          :.................................................:
          :   RF solver                   davidson          :
          :   write xtbopt.log                true          :
          :   linear?                        false          :
          :   energy convergence         0.5000000E-05 Eh   :
          :   grad. convergence          0.1000000E-02 Eh/α :
          :   maximium RF displ.         1.0000000          :
          :   Hlow (freq-cutoff)         0.1000000E-01      :
          :   Hmax (freq-cutoff)         5.0000000          :
          :   S6 in model hess.         20.0000000          :
          ...................................................

generating ANC from model Hessian ...
Using Lindh-Hessian (1995)
 Shifting diagonal of input Hessian by   6.734101026370495E-003
 Lowest  eigenvalues of input Hessian
    0.000000    0.000000    0.000000    0.000000    0.000000    0.000000
    0.010000    0.012700    0.020788    0.022184    0.027394    0.044899
    0.047651    0.064362    0.077632    0.086674    0.092541    0.095288
 Highest eigenvalues
    1.599375    1.689239    1.856445    1.972256    2.057589    2.544886
 

........................................................................
.............................. CYCLE    1 ..............................
........................................................................
   1    -24.8994217 -0.248994E+02  0.189E-04    3.52       0.0  T
   2    -24.8994217 -0.930633E-10  0.110E-04    3.52     242.2  T
   3    -24.8994217 -0.195222E-10  0.801E-05    3.52     333.6  T
     SCC iter.                  ...        0 min,  0.002 sec
     gradient                   ...        0 min,  0.004 sec
 * total energy  :   -24.4902064 Eh     change       -0.4261906E-09 Eh
   gradient norm :     0.0370541 Eh/α   predicted     0.0000000E+00 (-100.00%)
   displ. norm   :     0.0843322 α      lambda       -0.1794562E-02
   maximum displ.:     0.0655091 α      in ANC's #19, #12, #11, ...

........................................................................
.............................. CYCLE    2 ..............................
........................................................................
   1    -24.9210747 -0.249211E+02  0.132E-01    3.59       0.0  T
   2    -24.9210817 -0.699956E-05  0.836E-02    3.58       1.0  T
   3    -24.9210739  0.786269E-05  0.493E-02    3.59       1.0  T
   4    -24.9210898 -0.159350E-04  0.669E-03    3.58       4.0  T
   5    -24.9210902 -0.378867E-06  0.204E-03    3.59      13.1  T
   6    -24.9210902  0.792348E-09  0.982E-04    3.59      27.2  T
   7    -24.9210902 -0.254747E-08  0.334E-04    3.59      80.0  T
     SCC iter.                  ...        0 min,  0.003 sec
     gradient                   ...        0 min,  0.002 sec
 * total energy  :   -24.4911415 Eh     change       -0.9351317E-03 Eh
   gradient norm :     0.0125467 Eh/α   predicted    -0.9036633E-03 (  -3.37%)
   displ. norm   :     0.0203541 α      lambda       -0.1132617E-03
   maximum displ.:     0.0131484 α      in ANC's #19, #12, #6, ...

........................................................................
.............................. CYCLE    3 ..............................
........................................................................
   1    -24.9222455 -0.249222E+02  0.348E-02    3.57       0.0  T
   2    -24.9222476 -0.219021E-05  0.199E-02    3.58       1.3  T
   3    -24.9222480 -0.369442E-06  0.119E-02    3.58       2.2  T
   4    -24.9222483 -0.323781E-06  0.299E-03    3.58       8.9  T
   5    -24.9222484 -0.450075E-07  0.103E-03    3.58      25.9  T
   6    -24.9222484 -0.103306E-07  0.445E-04    3.58      60.1  T
   7    -24.9222484 -0.538257E-09  0.274E-04    3.58      97.6  T
     SCC iter.                  ...        0 min,  0.002 sec
     gradient                   ...        0 min,  0.002 sec
 * total energy  :   -24.4912126 Eh     change       -0.7102722E-04 Eh
   gradient norm :     0.0041382 Eh/α   predicted    -0.5665499E-04 ( -20.23%)
   displ. norm   :     0.0145054 α      lambda       -0.2567671E-04
   maximum displ.:     0.0104838 α      in ANC's #6, #14, #12, ...

........................................................................
.............................. CYCLE    4 ..............................
........................................................................
   1    -24.9220839 -0.249221E+02  0.210E-02    3.57       0.0  T
   2    -24.9220850 -0.111473E-05  0.112E-02    3.57       2.4  T
   3    -24.9220853 -0.285621E-06  0.690E-03    3.57       3.9  T
   4    -24.9220854 -0.908229E-07  0.131E-03    3.57      20.5  T
   5    -24.9220854 -0.516447E-08  0.607E-04    3.57      44.0  T
   6    -24.9220854 -0.249730E-08  0.236E-04    3.57     113.0  T
     SCC iter.                  ...        0 min,  0.002 sec
     gradient                   ...        0 min,  0.002 sec
 * total energy  :   -24.4912290 Eh     change       -0.1643351E-04 Eh
   gradient norm :     0.0015906 Eh/α   predicted    -0.1284101E-04 ( -21.86%)
   displ. norm   :     0.0142755 α      lambda       -0.5812784E-05
   maximum displ.:     0.0116583 α      in ANC's #6, #11, #7, ...

........................................................................
.............................. CYCLE    5 ..............................
........................................................................
   1    -24.9216312 -0.249216E+02  0.135E-02    3.57       0.0  T
   2    -24.9216317 -0.548090E-06  0.785E-03    3.57       3.4  T
   3    -24.9216319 -0.164346E-06  0.464E-03    3.57       5.8  T
   4    -24.9216319 -0.315405E-07  0.131E-03    3.57      20.4  T
   5    -24.9216319 -0.124548E-07  0.539E-04    3.57      49.6  T
   6    -24.9216319 -0.181278E-08  0.196E-04    3.57     136.1  T
     SCC iter.                  ...        0 min,  0.002 sec
     gradient                   ...        0 min,  0.002 sec
 * total energy  :   -24.4912324 Eh     change       -0.3362444E-05 Eh
   gradient norm :     0.0009068 Eh/α   predicted    -0.2907491E-05 ( -13.53%)
   displ. norm   :     0.0046338 α      lambda       -0.8224403E-06
   maximum displ.:     0.0028211 α      in ANC's #2, #1, #10, ...

   *** GEOMETRY OPTIMIZATION CONVERGED AFTER 5 ITERATIONS ***

------------------------------------------------------------------------
 total energy gain   :        -0.0010260 Eh       -0.6438 kcal/mol
 total RMSD          :         0.0287941 a0        0.0152 Å
 total power (kW/mol):        -0.5387291 (step)  -76.5263 (real)
------------------------------------------------------------------------

 ANCopt (total)                0 d,  0 h,  0 min,  0.035 sec
 optimizer setup                ...        0 min,  0.000 sec (  0.506%)
 model hessian                  ...        0 min,  0.001 sec (  2.798%)
 ANC generation                 ...        0 min,  0.000 sec (  0.557%)
 coordinate transformation      ...        0 min,  0.000 sec (  0.078%)
 single point calculation       ...        0 min,  0.032 sec ( 90.700%)
 optimization log               ...        0 min,  0.001 sec (  3.147%)
 hessian update                 ...        0 min,  0.000 sec (  0.083%)
 rational function              ...        0 min,  0.000 sec (  1.255%)

================
 final structure:
================
14
 xtb: 6.4.1 (afa7bdf)
C        -1.07565925885027   -0.00072158220494    0.00010540080639
C        -0.36656616003375   -1.20427172500414    0.00010891105039
C         1.01165539413888   -1.19270556845046    0.00002088407829
C         1.70495017198836    0.01809733350851   -0.00003353700136
C         0.99290172048689    1.22066786482907    0.00000248275286
C        -0.38269992000767    1.21440936541172    0.00008423995897
O         3.04951008613330    0.08323270845365   -0.00009306894760
H         3.45088424784109   -0.80069804856389   -0.00014794665429
H        -0.90526048287541   -2.13940784345533    0.00012555984926
H         1.55283055659181   -2.12683129258926   -0.00001250267502
H         1.54606105510215    2.14596720659711   -0.00004664041984
H        -0.93384049860861    2.14202213155935    0.00006922196661
C        -2.48230054495891   -0.01206107066913   -0.00011164096961
N        -3.63232236694787   -0.02255047942227   -0.00008136379505
 
 Bond Distances (Angstroems)
 ---------------------------
C1-C2=1.3969         C1-C6=1.3988         C1-C13=1.4067        C2-C1=1.3969         C2-C3=1.3783         C2-H9=1.0792         
C3-C2=1.3783         C3-C4=1.3952         C3-H10=1.0796        C4-C3=1.3952         C4-C5=1.3976         C4-O7=1.3461         
C5-C4=1.3976         C5-C6=1.3756         C5-H11=1.0780        C6-C1=1.3988         C6-C5=1.3756         C6-H12=1.0790        
O7-C4=1.3461         O7-H8=0.9708         H8-O7=0.9708         H9-C2=1.0792         H10-C3=1.0796        H11-C5=1.0780        
H12-C6=1.0790        C13-C1=1.4067        C13-N14=1.1501       N14-C13=1.1501       
 C  H  Rav=1.0789 sigma=0.0006  Rmin=1.0780  Rmax=1.0796     4
 C  C  Rav=1.3927 sigma=0.0106  Rmin=1.3756  Rmax=1.4067     7
 N  C  Rav=1.1501 sigma=0.0000  Rmin=1.1501  Rmax=1.1501     1
 O  H  Rav=0.9708 sigma=0.0000  Rmin=0.9708  Rmax=0.9708     1
 O  C  Rav=1.3461 sigma=0.0000  Rmin=1.3461  Rmax=1.3461     1
 
 selected bond angles (degree)
 --------------------
C6-C1-C2=119.80                C13-C1-C2=120.04               C13-C1-C6=120.16               C3-C2-C1=120.02                
H9-C2-C1=119.55                H9-C2-C3=120.43                C4-C3-C2=120.28                H10-C3-C2=119.60               
H10-C3-C4=120.12               C5-C4-C3=119.57                O7-C4-C3=122.57                O7-C4-C5=117.86                
C6-C5-C4=120.37                H11-C5-C4=118.50               H11-C5-C6=121.13               C5-C6-C1=119.96                
H12-C6-C1=119.59               H12-C6-C5=120.46               H8-O7-C4=111.65                
 
 selected dihedral angles (degree)
 ---------------------------------
C3-C2-C1-C6=  0.00            C3-C2-C1-C13=179.99           H9-C2-C1-C6=180.00            H9-C2-C1-C13=  0.00           
C4-C3-C2-C1=  0.00            C4-C3-C2-H9=180.00            H10-C3-C2-C1=180.00           H10-C3-C2-H9=  0.00           
C5-C4-C3-C2=  0.00            C5-C4-C3-H10=180.00           O7-C4-C3-C2=180.00            O7-C4-C3-H10=  0.00           
C6-C5-C4-C3=  0.00            C6-C5-C4-O7=180.00            H11-C5-C4-C3=180.00           H11-C5-C4-O7=  0.00           
C5-C6-C1-C2=  0.00            C5-C6-C1-C13=180.01           H12-C6-C1-C2=180.00           H12-C6-C1-C13=  0.00          
C1-C6-C5-C4=  0.00            C1-C6-C5-H11=180.00           H12-C6-C5-C4=180.00           H12-C6-C5-H11=  0.00          
H8-O7-C4-C3=  0.00            H8-O7-C4-C5=180.00            
           -------------------------------------------------
          |                Final Singlepoint                |
           -------------------------------------------------

          ...................................................
          :                      SETUP                      :
          :.................................................:
          :  # basis functions                  41          :
          :  # atomic orbitals                  41          :
          :  # shells                           23          :
          :  # electrons                        44          :
          :  max. iterations                   250          :
          :  Hamiltonian                  GFN2-xTB          :
          :  restarted?                      false          :
          :  GBSA solvation                   true          :
          :  PC potential                    false          :
          :  electronic temp.          300.0000000     K    :
          :  accuracy                    1.0000000          :
          :  -> integral cutoff          0.2500000E+02      :
          :  -> integral neglect         0.1000000E-07      :
          :  -> SCF convergence          0.1000000E-05 Eh   :
          :  -> wf. convergence          0.1000000E-03 e    :
          :  Broyden damping             0.4000000          :
          ...................................................

 iter      E             dE          RMSdq      gap      omega  full diag
   1    -24.9216319 -0.249216E+02  0.118E-04    3.57       0.0  T
   2    -24.9216319 -0.275548E-10  0.740E-05    3.57     361.0  T
   3    -24.9216319 -0.140581E-10  0.500E-05    3.57     534.8  T

   *** convergence criteria satisfied after 3 iterations ***

         #    Occupation            Energy/Eh            Energy/eV
      -------------------------------------------------------------
         1        2.0000           -0.7220284             -19.6474
       ...           ...                  ...                  ...
        16        2.0000           -0.4753361             -12.9346
        17        2.0000           -0.4720078             -12.8440
        18        2.0000           -0.4656239             -12.6703
        19        2.0000           -0.4353549             -11.8466
        20        2.0000           -0.4268070             -11.6140
        21        2.0000           -0.4238966             -11.5348
        22        2.0000           -0.3979214             -10.8280 (HOMO)
        23                         -0.2667986              -7.2600 (LUMO)
        24                         -0.2400148              -6.5311
        25                         -0.2123193              -5.7775
        26                         -0.1684974              -4.5850
        27                         -0.0840650              -2.2875
       ...                                ...                  ...
        41                          1.1576917              31.5024
      -------------------------------------------------------------
                  HL-Gap            0.1311228 Eh            3.5680 eV
             Fermi-level           -0.3323600 Eh           -9.0440 eV

 SCC (total)                   0 d,  0 h,  0 min,  0.005 sec
 SCC setup                      ...        0 min,  0.000 sec (  4.759%)
 Dispersion                     ...        0 min,  0.000 sec (  0.552%)
 classical contributions        ...        0 min,  0.000 sec (  0.184%)
 integral evaluation            ...        0 min,  0.001 sec ( 21.691%)
 iterations                     ...        0 min,  0.001 sec ( 26.651%)
 molecular gradient             ...        0 min,  0.002 sec ( 43.429%)
 printout                       ...        0 min,  0.000 sec (  2.406%)

         :::::::::::::::::::::::::::::::::::::::::::::::::::::
         ::                     SUMMARY                     ::
         :::::::::::::::::::::::::::::::::::::::::::::::::::::
         :: total energy             -24.491232355257 Eh    ::
         :: total w/o Gsasa/hb       -24.480450080743 Eh    ::
         :: gradient norm              0.000905939541 Eh/a0 ::
         :: HOMO-LUMO gap              3.568032913602 eV    ::
         ::.................................................::
         :: SCC energy               -24.921631915957 Eh    ::
         :: -> isotropic ES            0.040258029887 Eh    ::
         :: -> anisotropic ES          0.003554604811 Eh    ::
         :: -> anisotropic XC          0.022645279737 Eh    ::
         :: -> dispersion             -0.011239516873 Eh    ::
         :: -> Gsolv                  -0.019810387301 Eh    ::
         ::    -> Gelec               -0.009028112787 Eh    ::
         ::    -> Gsasa               -0.004943029880 Eh    ::
         ::    -> Ghb                 -0.006920004332 Eh    ::
         ::    -> Gshift               0.001080759698 Eh    ::
         :: repulsion energy           0.430396319290 Eh    ::
         :: add. restraining           0.000000000000 Eh    ::
         :: total charge              -0.000000000000 e     ::
         :::::::::::::::::::::::::::::::::::::::::::::::::::::

           ------------------------------------------------- 
          |                Numerical Hessian                |
           ------------------------------------------------- 
step length          :   0.00500
SCC accuracy         :   0.30000
Hessian scale factor :   1.00000
frozen atoms in %    :   0.00000    0
RMS gradient         :   0.00091
estimated CPU  time      0.01 min
estimated wall time      0.01 min

writing file <hessian>.

 projected vibrational frequencies (cm⁻¹)
eigval :       -0.00    -0.00    -0.00    -0.00     0.00     0.00
eigval :       97.21   138.79   248.00   368.72   382.38   394.65
eigval :      442.43   454.53   532.47   537.75   620.83   679.10
eigval :      706.78   814.08   860.35   861.38   905.99   919.23
eigval :     1008.11  1091.93  1127.49  1175.26  1216.75  1262.98
eigval :     1283.75  1332.77  1415.89  1479.81  1556.47  1588.49
eigval :     2348.77  3085.11  3096.90  3099.65  3114.91  3426.91
           -------------------------------------------------
          |                Property Printout                |
           -------------------------------------------------

    * Orbital Energies and Occupations

         #    Occupation            Energy/Eh            Energy/eV
      -------------------------------------------------------------
         1        2.0000           -0.7220282             -19.6474
       ...           ...                  ...                  ...
        10        2.0000           -0.5457795             -14.8514
        11        2.0000           -0.5374490             -14.6247
        12        2.0000           -0.5054022             -13.7527
        13        2.0000           -0.5043995             -13.7254
        14        2.0000           -0.5003603             -13.6155
        15        2.0000           -0.4934290             -13.4269
        16        2.0000           -0.4753361             -12.9346
        17        2.0000           -0.4720079             -12.8440
        18        2.0000           -0.4656239             -12.6703
        19        2.0000           -0.4353550             -11.8466
        20        2.0000           -0.4268071             -11.6140
        21        2.0000           -0.4238966             -11.5348
        22        2.0000           -0.3979215             -10.8280 (HOMO)
        23                         -0.2667986              -7.2600 (LUMO)
        24                         -0.2400148              -6.5311
        25                         -0.2123193              -5.7775
        26                         -0.1684974              -4.5850
        27                         -0.0840650              -2.2875
        28                          0.0673047               1.8315
        29                          0.1080419               2.9400
        30                          0.1337283               3.6389
        31                          0.1550994               4.2205
        32                          0.1664438               4.5292
        33                          0.1939115               5.2766
       ...                                ...                  ...
        41                          1.1576918              31.5024
      -------------------------------------------------------------
                  HL-Gap            0.1311229 Eh            3.5680 eV
             Fermi-level           -0.3323601 Eh           -9.0440 eV

     #   Z          covCN         q      C6AA      α(0)
     1   6 C        2.973     0.003    27.956     8.673
     2   6 C        2.926    -0.023    28.572     8.766
     3   6 C        2.916    -0.071    29.771     8.947
     4   6 C        2.845     0.162    24.488     8.110
     5   6 C        2.918    -0.056    29.399     8.891
     6   6 C        2.925    -0.023    28.570     8.766
     7   8 O        1.660    -0.432    21.479     6.256
     8   1 H        0.804     0.386     0.511     1.122
     9   1 H        0.926     0.054     2.275     2.359
    10   1 H        0.926     0.063     2.162     2.299
    11   1 H        0.926     0.067     2.119     2.277
    12   1 H        0.926     0.053     2.280     2.361
    13   6 C        1.913     0.121    28.117     8.564
    14   7 N        0.911    -0.305    27.855     7.633

 Mol. C6AA /au·bohr⁶  :       2871.863960
 Mol. C8AA /au·bohr⁸  :      71779.782847
 Mol. α(0) /au        :         85.024724


Wiberg/Mayer (AO) data.
largest (>0.10) Wiberg bond orders for each atom

 ---------------------------------------------------------------------------
     #   Z sym  total        # sym  WBO       # sym  WBO       # sym  WBO
 ---------------------------------------------------------------------------
     1   6 C    3.986 --     2 C    1.345     6 C    1.335    13 C    1.114
     2   6 C    3.990 --     3 C    1.477     1 C    1.345     9 H    0.969
     3   6 C    3.987 --     2 C    1.477     4 C    1.349    10 H    0.963
     4   6 C    3.920 --     3 C    1.349     5 C    1.338     7 O    1.113
     5   6 C    3.988 --     6 C    1.490     4 C    1.338    11 H    0.965
     6   6 C    3.990 --     5 C    1.490     1 C    1.335    12 H    0.969
     7   8 O    2.110 --     4 C    1.113     8 H    0.830
     8   1 H    0.851 --     7 O    0.830
     9   1 H    0.997 --     2 C    0.969
    10   1 H    0.995 --     3 C    0.963
    11   1 H    0.994 --     5 C    0.965
    12   1 H    0.997 --     6 C    0.969
    13   6 C    3.938 --    14 N    2.767     1 C    1.114
    14   7 N    2.951 --    13 C    2.767
 ---------------------------------------------------------------------------

Topologies differ in total number of bonds
Writing topology from bond orders to xtbtopo.mol

molecular dipole:
                 x           y           z       tot (Debye)
 q only:        2.058      -0.590      -0.000
   full:        2.414      -0.739      -0.000       6.417
molecular quadrupole (traceless):
                xx          xy          yy          xz          yz          zz
 q only:       -8.901      -6.237       7.335      -0.001       0.000       1.567
  q+dip:      -12.528      -7.802      12.004      -0.001       0.000       0.524
   full:      -14.949      -7.896      11.312      -0.001       0.000       3.636

           -------------------------------------------------
          |                Geometry Summary                 |
           -------------------------------------------------

      molecular mass/u    :      119.1209632
   center of mass at/Å    :       -0.0379234       0.0063142      -0.0000042
  moments of inertia/u·Å² :        0.8929786E+02   0.5023096E+03   0.5916075E+03
rotational constants/cm⁻¹ :        0.1887798E+00   0.3356024E-01   0.2849462E-01

 * 13 selected distances

     #   Z          #   Z                                           value/Å
     1   6 C        2   6 C                                       1.3969059
     2   6 C        3   6 C                                       1.3782701
     3   6 C        4   6 C                                       1.3952424
     4   6 C        5   6 C                                       1.3975653
     1   6 C        6   6 C                                       1.3988338 (max)
     5   6 C        6   6 C                                       1.3756159
     4   6 C        7   8 O                                       1.3461367
     7   8 O        8   1 H                                       0.9707908 (min)
     2   6 C        9   1 H                                       1.0791993
     3   6 C       10   1 H                                       1.0795654
     5   6 C       11   1 H                                       1.0780372
     6   6 C       12   1 H                                       1.0789909
    13   6 C       14   7 N                                       1.1500697

 * 5 distinct bonds (by element types)

   Z      Z             #   av. dist./Å        max./Å        min./Å
   1 H    6 C           4     1.0789482     1.0795654     1.0780372
   6 C    6 C           6     1.3904056     1.3988338     1.3756159
   6 C    7 N           1     1.1500697     1.1500697     1.1500697
   1 H    8 O           1     0.9707908     0.9707908     0.9707908
   6 C    8 O           1     1.3461367     1.3461367     1.3461367

           -------------------------------------------------
          |               Frequency Printout                |
           -------------------------------------------------
 projected vibrational frequencies (cm⁻¹)
eigval :       -0.00    -0.00    -0.00    -0.00     0.00     0.00
eigval :       97.21   138.79   248.00   368.72   382.38   394.65
eigval :      442.43   454.53   532.47   537.75   620.83   679.10
eigval :      706.78   814.08   860.35   861.38   905.99   919.23
eigval :     1008.11  1091.93  1127.49  1175.26  1216.75  1262.98
eigval :     1283.75  1332.77  1415.89  1479.81  1556.47  1588.49
eigval :     2348.77  3085.11  3096.90  3099.65  3114.91  3426.91
 reduced masses (amu)
   1: 13.15   2: 12.55   3: 12.00   4: 10.58   5: 12.36   6: 12.44   7: 13.22   8: 12.73
   9: 12.12  10:  8.27  11: 11.87  12: 12.77  13:  3.03  14: 10.54  15: 11.63  16:  9.92
  17: 11.50  18: 11.30  19: 12.16  20:  5.16  21:  3.34  22: 11.88  23:  2.93  24:  3.81
  25:  8.35  26:  4.13  27:  2.42  28:  2.07  29:  7.67  30:  3.50  31: 11.57  32: 11.20
  33: 10.33  34:  9.84  35: 11.57  36: 11.49  37: 12.78  38:  1.80  39:  1.81  40:  1.87
  41:  1.87  42:  1.86
 IR intensities (km·mol⁻¹)
   1:  2.52   2:  0.81   3:  0.28   4:  2.24   5:  0.31   6:  1.79   7:  5.40   8: 10.13
   9:  1.17  10: 22.69  11: 18.87  12:  0.01  13:199.53  14:  0.34  15:  3.78  16:  8.92
  17:  2.31  18:  5.94  19: 12.92  20: 44.32  21:  0.34  22: 37.88  23:  0.09  24:  0.29
  25:  0.67  26:346.05  27: 79.32  28: 59.74  29: 34.22  30: 48.65  31:507.16  32: 53.37
  33: 12.11  34: 92.77  35: 42.80  36:346.03  37:689.99  38: 27.86  39: 44.66  40: 34.01
  41: 32.02  42:201.48
 Raman intensities (amu)
   1:  0.00   2:  0.00   3:  0.00   4:  0.00   5:  0.00   6:  0.00   7:  0.00   8:  0.00
   9:  0.00  10:  0.00  11:  0.00  12:  0.00  13:  0.00  14:  0.00  15:  0.00  16:  0.00
  17:  0.00  18:  0.00  19:  0.00  20:  0.00  21:  0.00  22:  0.00  23:  0.00  24:  0.00
  25:  0.00  26:  0.00  27:  0.00  28:  0.00  29:  0.00  30:  0.00  31:  0.00  32:  0.00
  33:  0.00  34:  0.00  35:  0.00  36:  0.00  37:  0.00  38:  0.00  39:  0.00  40:  0.00
  41:  0.00  42:  0.00
 output can be read by thermo (or use thermo option).
 writing <g98.out> molden fake output.
 recommended (thermochemical) frequency scaling factor: 1.0
           -------------------------------------------------
          |             Thermodynamic Functions             |
           -------------------------------------------------

Molecule has the following symmetry elements: (sigma) 
It seems to be the Cs point group
cs  symmetry found (for desy threshold:  0.10E+00) used in thermo

          ...................................................
          :                      SETUP                      :
          :.................................................:
          :  # frequencies                          36      :
          :  # imaginary freq.                       0      :
          :  linear?                             false      :
          :  only rotor calc.                    false      :
          :  symmetry                               cs      :
          :  rotational number                       1      :
          :  scaling factor                  1.0000000      :
          :  rotor cutoff                   50.0000000 cm⁻¹ :
          :  imag. cutoff                  -20.0000000 cm⁻¹ :
          :.................................................:

    mode    ω/cm⁻¹     T·S(HO)/kcal·mol⁻¹    T·S(FR)/kcal·mol⁻¹   T·S(vib)
   ------------------------------------------------------------------------
       1     97.21    -1.04635 ( 93.46%)    -0.85946 (  6.54%)    -1.03412
       2    138.79    -0.84092 ( 98.34%)    -0.75401 (  1.66%)    -0.83948
       3    248.00    -0.52019 ( 99.84%)    -0.58209 (  0.16%)    -0.52030
   ------------------------------------------------------------------------

   temp. (K)  partition function   enthalpy   heat capacity  entropy
                                   cal/mol     cal/K/mol   cal/K/mol   J/K/mol
 298.15  VIB   24.8                 2923.724     22.696     16.141
         ROT  0.394E+06              888.752      2.981     28.583
         INT  0.975E+07             3812.476     25.677     44.724
         TR   0.126E+28             1481.254      4.968     40.221
         TOT                        5293.7299    30.6449    84.9451   355.4103

       T/K    H(0)-H(T)+PV         H(T)/Eh          T*S/Eh         G(T)/Eh
   ------------------------------------------------------------------------
    298.15    0.843610E-02    0.107939E+00    0.403602E-01    0.675786E-01
   ------------------------------------------------------------------------

         :::::::::::::::::::::::::::::::::::::::::::::::::::::
         ::                  THERMODYNAMIC                  ::
         :::::::::::::::::::::::::::::::::::::::::::::::::::::
         :: total free energy         -24.423653718795 Eh   ::
         ::.................................................::
         :: total energy              -24.491232356045 Eh   ::
         :: zero point energy           0.099502705582 Eh   ::
         :: G(RRHO) w/o ZPVE           -0.031924068332 Eh   ::
         :: G(RRHO) contrib.            0.067578637250 Eh   ::
         :::::::::::::::::::::::::::::::::::::::::::::::::::::

optimized geometry written to: xtbopt.xyz


           -------------------------------------------------
          | TOTAL ENERGY              -24.491232356045 Eh   |
          | TOTAL ENTHALPY            -24.383293554944 Eh   |
          | TOTAL FREE ENERGY         -24.423653718795 Eh   |
          | GRADIENT NORM               0.000905496691 Eh/α |
          | HOMO-LUMO GAP               3.568035614917 eV   |
           -------------------------------------------------

------------------------------------------------------------------------
 * finished run on 2021/11/15 at 09:36:17.146     
------------------------------------------------------------------------
 total:
 * wall-time:     0 d,  0 h,  0 min,  0.593 sec
 *  cpu-time:     0 d,  0 h,  0 min,  0.578 sec
 * ratio c/w:     0.975 speedup
 SCF:
 * wall-time:     0 d,  0 h,  0 min,  0.009 sec
 *  cpu-time:     0 d,  0 h,  0 min,  0.016 sec
 * ratio c/w:     1.792 speedup
 ANC optimizer:
 * wall-time:     0 d,  0 h,  0 min,  0.042 sec
 *  cpu-time:     0 d,  0 h,  0 min,  0.031 sec
 * ratio c/w:     0.740 speedup
 analytical hessian:
 * wall-time:     0 d,  0 h,  0 min,  0.508 sec
 *  cpu-time:     0 d,  0 h,  0 min,  0.516 sec
 * ratio c/w:     1.014 speedup

