 Entering Gaussian System
 *********************************************
 Gaussian 98:
 frequency output generated by the xtb code
 *********************************************
                         Standard orientation:
 --------------------------------------------------------------------
  Center     Atomic     Atomic              Coordinates (Angstroms)
  Number     Number      Type              X           Y           Z
 --------------------------------------------------------------------
    1          6             0       -1.075659   -0.000716    0.000109
    2          6             0       -0.366572   -1.204270    0.000112
    3          6             0        1.011649   -1.192711    0.000019
    4          6             0        1.704950    0.018088   -0.000040
    5          6             0        0.992908    1.220663   -0.000003
    6          6             0       -0.382694    1.214411    0.000083
    7          8             0        3.049511    0.083217   -0.000104
    8          1             0        3.450880   -0.800716   -0.000159
    9          1             0       -0.905272   -2.139403    0.000132
   10          1             0        1.552819   -2.126839   -0.000014
   11          1             0        1.546072    2.145959   -0.000056
   12          1             0       -0.933829    2.142027    0.000069
   13          6             0       -2.482301   -0.012048   -0.000103
   14          7             0       -3.632322   -0.022531   -0.000069
 --------------------------------------------------------------------
     1 basis functions        1 primitive gaussians
     1 alpha electrons        1 beta electrons
 
 Harmonic frequencies (cm**-1), IR intensities (km*mol⁻¹),
 Raman scattering activities (A**4/amu), Raman depolarization ratios,
 reduced masses (AMU), force constants (mDyne/A) and normal coordinates:
                      1                      2                      3
                        a                      a                      a 
 Frequencies --    97.2111               138.7917               248.0011
 Red. masses --    13.2157                12.7275                12.1177
 Frc consts  --     0.0000                 0.0000                 0.0000
 IR Inten    --     5.4032                10.1284                 1.1746
 Raman Activ --     0.0000                 0.0000                 0.0000
 Depolar     --     0.0000                 0.0000                 0.0000
 Atom AN      X      Y      Z        X      Y      Z        X      Y      Z
   1   6    -0.00   0.00   0.31     0.00  -0.35   0.00     0.00   0.00   0.44
   2   6     0.00   0.00   0.32     0.15  -0.26   0.00     0.00  -0.00   0.04
   3   6    -0.00   0.00   0.16     0.15  -0.07   0.00    -0.00  -0.00  -0.37
   4   6    -0.00   0.00  -0.04    -0.00   0.03  -0.00    -0.00  -0.00  -0.21
   5   6    -0.00   0.00   0.15    -0.15  -0.07  -0.00    -0.00  -0.00  -0.38
   6   6     0.00   0.00   0.32    -0.14  -0.26  -0.00     0.00   0.00   0.04
   7   8    -0.00  -0.00  -0.52    -0.01   0.29  -0.00     0.00   0.00   0.40
   8   1    -0.00  -0.00  -0.15     0.04   0.09   0.00     0.00   0.00   0.09
   9   1     0.00   0.00   0.11     0.08  -0.10   0.00    -0.00   0.00   0.02
  10   1    -0.00   0.00   0.03     0.08   0.00   0.00    -0.00  -0.00  -0.17
  11   1    -0.00   0.00   0.03    -0.08   0.00  -0.00    -0.00  -0.00  -0.17
  12   1     0.00   0.00   0.11    -0.08  -0.10  -0.00    -0.00   0.00   0.02
  13   6     0.00   0.00  -0.03     0.00  -0.09   0.00     0.00   0.00   0.40
  14   7     0.00  -0.00  -0.58    -0.01   0.71  -0.00     0.00  -0.00  -0.32
                      4                      5                      6
                        a                      a                      a 
 Frequencies --   368.7162               382.3780               394.6492
 Red. masses --     8.2714                11.8704                12.7670
 Frc consts  --     0.0000                 0.0000                 0.0000
 IR Inten    --    22.6876                18.8698                 0.0141
 Raman Activ --     0.0000                 0.0000                 0.0000
 Depolar     --     0.0000                 0.0000                 0.0000
 Atom AN      X      Y      Z        X      Y      Z        X      Y      Z
   1   6     0.00  -0.00  -0.00    -0.09  -0.11   0.00     0.28  -0.03   0.00
   2   6     0.00  -0.00   0.41     0.12   0.02  -0.00     0.00  -0.16  -0.00
   3   6    -0.00   0.00  -0.39     0.09   0.36   0.00    -0.07  -0.05  -0.00
   4   6    -0.00   0.00   0.01     0.11   0.34   0.00    -0.35   0.10  -0.00
   5   6     0.00   0.00   0.40    -0.05   0.27  -0.00    -0.11   0.24  -0.00
   6   6    -0.00  -0.00  -0.41    -0.11  -0.08   0.00    -0.07   0.15   0.00
   7   8     0.00  -0.00   0.08     0.20  -0.57  -0.00    -0.45  -0.18   0.00
   8   1    -0.00  -0.00  -0.31    -0.16  -0.24  -0.00    -0.17  -0.07  -0.00
   9   1     0.00  -0.00   0.26     0.11  -0.04  -0.00    -0.04  -0.02  -0.00
  10   1    -0.00   0.00  -0.24     0.07   0.13   0.00     0.05   0.03   0.00
  11   1     0.00   0.00   0.23    -0.10   0.13  -0.00     0.00   0.05  -0.00
  12   1    -0.00  -0.00  -0.26    -0.07  -0.04   0.00    -0.09  -0.00   0.00
  13   6     0.00  -0.00  -0.00    -0.12  -0.21   0.00     0.40  -0.07  -0.00
  14   7    -0.00   0.00  -0.00    -0.14   0.09  -0.00     0.45   0.03   0.00
                      7                      8                      9
                        a                      a                      a 
 Frequencies --   442.4252               454.5338               532.4734
 Red. masses --     3.0282                10.5368                11.6333
 Frc consts  --     0.0000                 0.0000                 0.0000
 IR Inten    --   199.5252                 0.3421                 3.7832
 Raman Activ --     0.0000                 0.0000                 0.0000
 Depolar     --     0.0000                 0.0000                 0.0000
 Atom AN      X      Y      Z        X      Y      Z        X      Y      Z
   1   6    -0.00   0.00  -0.00    -0.00  -0.00  -0.13    -0.00   0.24   0.00
   2   6    -0.00   0.00  -0.08     0.00   0.00   0.35     0.08   0.32  -0.00
   3   6     0.00  -0.00   0.16    -0.00   0.00  -0.14     0.06  -0.13  -0.00
   4   6     0.00  -0.00  -0.01     0.00  -0.00  -0.50     0.00  -0.14   0.00
   5   6    -0.00  -0.00  -0.19    -0.00  -0.00  -0.11    -0.06  -0.13   0.00
   6   6     0.00  -0.00   0.14     0.00  -0.00   0.33    -0.09   0.32   0.00
   7   8     0.00   0.00   0.26     0.00  -0.00   0.21    -0.00  -0.02   0.00
   8   1    -0.00   0.00  -0.90     0.00  -0.00   0.13     0.02   0.01  -0.00
   9   1    -0.00   0.00  -0.05     0.00   0.00   0.26    -0.03   0.12  -0.00
  10   1     0.00  -0.00   0.10    -0.00   0.00   0.06    -0.04  -0.07  -0.00
  11   1    -0.00  -0.00  -0.11    -0.00   0.00   0.08     0.04  -0.07  -0.00
  12   1     0.00   0.00   0.06     0.00   0.00   0.25     0.03   0.12   0.00
  13   6    -0.00   0.00  -0.07    -0.00  -0.00  -0.48     0.00  -0.75  -0.00
  14   7    -0.00  -0.00   0.03    -0.00   0.00   0.19    -0.01   0.24   0.00
                     10                     11                     12
                        a                      a                      a 
 Frequencies --   537.7514               620.8344               679.0959
 Red. masses --     9.9213                11.4950                11.3022
 Frc consts  --     0.0000                 0.0000                 0.0000
 IR Inten    --     8.9156                 2.3053                 5.9441
 Raman Activ --     0.0000                 0.0000                 0.0000
 Depolar     --     0.0000                 0.0000                 0.0000
 Atom AN      X      Y      Z        X      Y      Z        X      Y      Z
   1   6     0.00   0.00  -0.49     0.00   0.05   0.00     0.00  -0.00  -0.52
   2   6     0.00  -0.00  -0.05     0.37   0.19   0.00     0.00  -0.00   0.30
   3   6     0.00  -0.00   0.14     0.38  -0.21  -0.00     0.00  -0.00  -0.29
   4   6    -0.00  -0.00  -0.36     0.00  -0.07  -0.00    -0.00   0.00   0.53
   5   6     0.00   0.00   0.13    -0.38  -0.22   0.00     0.00   0.00  -0.29
   6   6     0.00   0.00  -0.05    -0.39   0.18  -0.00     0.00   0.00   0.30
   7   8    -0.00  -0.00   0.08     0.02  -0.16  -0.00    -0.00  -0.00  -0.08
   8   1    -0.00   0.00  -0.03    -0.05  -0.06   0.00    -0.00  -0.00  -0.01
   9   1     0.00   0.00   0.18     0.09   0.06   0.00     0.00  -0.00   0.10
  10   1     0.00  -0.00   0.27     0.09  -0.07  -0.00     0.00  -0.00  -0.16
  11   1     0.00   0.00   0.25    -0.10  -0.07   0.00     0.00   0.00  -0.16
  12   1     0.00   0.00   0.18    -0.10   0.06  -0.00     0.00   0.00   0.09
  13   6    -0.00  -0.00   0.58     0.00   0.39  -0.00    -0.00   0.00   0.15
  14   7    -0.00   0.00  -0.21     0.01  -0.10   0.00    -0.00  -0.00  -0.05
                     13                     14                     15
                        a                      a                      a 
 Frequencies --   706.7806               814.0827               860.3506
 Red. masses --    12.1555                 5.1581                 3.3379
 Frc consts  --     0.0000                 0.0000                 0.0000
 IR Inten    --    12.9227                44.3202                 0.3383
 Raman Activ --     0.0000                 0.0000                 0.0000
 Depolar     --     0.0000                 0.0000                 0.0000
 Atom AN      X      Y      Z        X      Y      Z        X      Y      Z
   1   6    -0.04   0.00  -0.00     0.00  -0.00  -0.24     0.00   0.00  -0.03
   2   6    -0.32   0.00   0.00    -0.00  -0.00   0.20    -0.00  -0.00  -0.18
   3   6    -0.31   0.19  -0.00     0.00  -0.00   0.29    -0.00  -0.00  -0.21
   4   6     0.18   0.00   0.00    -0.00  -0.00  -0.33    -0.00   0.00  -0.05
   5   6    -0.29  -0.20  -0.00     0.00   0.00   0.21     0.00   0.00   0.25
   6   6    -0.30  -0.01   0.00    -0.00   0.00   0.17    -0.00   0.00   0.26
   7   8     0.45   0.02  -0.00     0.00  -0.00   0.07     0.00   0.00   0.01
   8   1     0.11   0.00  -0.00     0.00   0.00   0.03     0.00  -0.00   0.02
   9   1    -0.10   0.01   0.00    -0.00  -0.00  -0.37    -0.00  -0.00   0.33
  10   1    -0.16   0.01  -0.00    -0.00  -0.00  -0.52     0.00  -0.00   0.44
  11   1    -0.17  -0.01  -0.00    -0.00   0.00  -0.36    -0.00   0.00  -0.49
  12   1    -0.10  -0.01   0.00    -0.00  -0.00  -0.30    -0.00  -0.00  -0.50
  13   6     0.28  -0.01   0.00    -0.00   0.00   0.09    -0.00   0.00   0.01
  14   7     0.37   0.01  -0.00    -0.00   0.00  -0.02    -0.00  -0.00  -0.00
                     16                     17                     18
                        a                      a                      a 
 Frequencies --   861.3841               905.9893               919.2266
 Red. masses --    11.8762                 2.9258                 3.8074
 Frc consts  --     0.0000                 0.0000                 0.0000
 IR Inten    --    37.8815                 0.0879                 0.2875
 Raman Activ --     0.0000                 0.0000                 0.0000
 Depolar     --     0.0000                 0.0000                 0.0000
 Atom AN      X      Y      Z        X      Y      Z        X      Y      Z
   1   6     0.15  -0.00   0.00     0.00  -0.00  -0.01    -0.00  -0.00  -0.00
   2   6    -0.13  -0.44   0.00     0.00   0.00   0.32     0.00   0.00   0.18
   3   6     0.02  -0.36   0.00    -0.00   0.00  -0.23    -0.00  -0.00  -0.17
   4   6    -0.04   0.00   0.00     0.00  -0.00  -0.04    -0.00  -0.00  -0.00
   5   6     0.01   0.37  -0.00    -0.00  -0.00  -0.09     0.00   0.00   0.30
   6   6    -0.14   0.44  -0.00     0.00   0.00   0.10    -0.00  -0.00  -0.32
   7   8     0.40   0.00  -0.00    -0.00   0.00  -0.00     0.00   0.00   0.01
   8   1     0.10   0.00  -0.00    -0.00  -0.00  -0.00     0.00   0.00  -0.01
   9   1    -0.13  -0.07  -0.00    -0.00  -0.00  -0.66    -0.00   0.00  -0.26
  10   1     0.07  -0.07  -0.00     0.00   0.00   0.48     0.00   0.00   0.24
  11   1     0.08   0.06   0.00     0.00  -0.00   0.28    -0.00  -0.00  -0.55
  12   1    -0.14   0.07   0.00    -0.00  -0.00  -0.30     0.00   0.00   0.57
  13   6    -0.13   0.00  -0.00    -0.00  -0.00   0.03     0.00   0.00  -0.01
  14   7    -0.18  -0.00   0.00    -0.00   0.00  -0.01     0.00   0.00   0.00
                     19                     20                     21
                        a                      a                      a 
 Frequencies --  1008.1121              1091.9307              1127.4891
 Red. masses --     8.3460                 4.1315                 2.4225
 Frc consts  --     0.0000                 0.0000                 0.0000
 IR Inten    --     0.6714               346.0531                79.3202
 Raman Activ --     0.0000                 0.0000                 0.0000
 Depolar     --     0.0000                 0.0000                 0.0000
 Atom AN      X      Y      Z        X      Y      Z        X      Y      Z
   1   6    -0.11   0.00  -0.00     0.02   0.12   0.00     0.00   0.15  -0.00
   2   6     0.02   0.37   0.00    -0.06  -0.09   0.00    -0.09  -0.13   0.00
   3   6     0.04  -0.41  -0.00     0.04  -0.18   0.00     0.09  -0.07  -0.00
   4   6    -0.07  -0.00   0.00    -0.03   0.22  -0.00     0.06   0.05   0.00
   5   6     0.03   0.41  -0.00    -0.02  -0.18  -0.00    -0.10  -0.07  -0.00
   6   6     0.03  -0.37   0.00     0.07  -0.10  -0.00     0.11  -0.05  -0.00
   7   8     0.11  -0.01  -0.00     0.19   0.24  -0.00    -0.11  -0.10   0.00
   8   1     0.05   0.01  -0.00    -0.74  -0.30   0.00     0.29   0.12  -0.00
   9   1    -0.17   0.20  -0.00    -0.22   0.09   0.00    -0.28   0.11   0.00
  10   1    -0.20  -0.23   0.00     0.04  -0.04  -0.00     0.39   0.19  -0.00
  11   1    -0.21   0.24   0.00    -0.08  -0.01   0.00    -0.52   0.27   0.00
  12   1    -0.17  -0.20  -0.00     0.21   0.08   0.00     0.36   0.18  -0.00
  13   6     0.05  -0.00   0.00    -0.01  -0.02  -0.00    -0.00  -0.02  -0.00
  14   7     0.08   0.00  -0.00    -0.01   0.01   0.00    -0.01   0.01  -0.00
                     22                     23                     24
                        a                      a                      a 
 Frequencies --  1175.2626              1216.7520              1262.9773
 Red. masses --     2.0741                 7.6679                 3.4954
 Frc consts  --     0.0000                 0.0000                 0.0000
 IR Inten    --    59.7403                34.2180                48.6535
 Raman Activ --     0.0000                 0.0000                 0.0000
 Depolar     --     0.0000                 0.0000                 0.0000
 Atom AN      X      Y      Z        X      Y      Z        X      Y      Z
   1   6     0.10   0.02   0.00    -0.55  -0.01  -0.00     0.02  -0.32   0.00
   2   6    -0.07   0.12   0.00    -0.07   0.08   0.00     0.10  -0.05  -0.00
   3   6     0.07   0.08  -0.00     0.04  -0.16   0.00     0.11   0.12  -0.00
   4   6    -0.12   0.02   0.00    -0.30   0.03   0.00     0.07   0.17  -0.00
   5   6     0.02  -0.09   0.00    -0.00   0.17   0.00    -0.11   0.10   0.00
   6   6    -0.05  -0.16   0.00    -0.07  -0.11   0.00    -0.10  -0.02   0.00
   7   8     0.08  -0.02  -0.00     0.21  -0.01  -0.00    -0.08  -0.07   0.00
   8   1     0.07   0.02   0.00     0.07   0.01  -0.00     0.14   0.06  -0.00
   9   1    -0.46   0.28   0.00     0.22  -0.12  -0.00    -0.45   0.26   0.00
  10   1     0.46   0.27  -0.00     0.29   0.12  -0.00    -0.35  -0.19   0.00
  11   1     0.34  -0.22  -0.00     0.29  -0.13  -0.00     0.28  -0.15  -0.00
  12   1    -0.33  -0.23   0.00     0.34   0.19  -0.00     0.40   0.25  -0.00
  13   6    -0.02  -0.00  -0.00     0.11   0.00   0.00    -0.00   0.03  -0.00
  14   7    -0.03   0.00   0.00     0.24   0.00  -0.00    -0.01  -0.01   0.00
                     25                     26                     27
                        a                      a                      a 
 Frequencies --  1283.7511              1332.7749              1415.8899
 Red. masses --    11.5720                11.2026                10.3335
 Frc consts  --     0.0000                 0.0000                 0.0000
 IR Inten    --   507.1553                53.3689                12.1105
 Raman Activ --     0.0000                 0.0000                 0.0000
 Depolar     --     0.0000                 0.0000                 0.0000
 Atom AN      X      Y      Z        X      Y      Z        X      Y      Z
   1   6    -0.47  -0.00  -0.00     0.02  -0.49   0.00     0.02   0.30  -0.00
   2   6    -0.19  -0.13   0.00    -0.28   0.25   0.00    -0.37  -0.11   0.00
   3   6     0.23  -0.06  -0.00     0.22   0.19  -0.00     0.44  -0.01  -0.00
   4   6     0.59  -0.02  -0.00    -0.04  -0.48   0.00    -0.00   0.23  -0.00
   5   6     0.21   0.06  -0.00    -0.23   0.17   0.00    -0.45  -0.01   0.00
   6   6    -0.14   0.15   0.00     0.28   0.23  -0.00     0.37  -0.11  -0.00
   7   8    -0.33   0.02   0.00     0.07   0.07  -0.00    -0.02  -0.08   0.00
   8   1    -0.13  -0.03   0.00    -0.19  -0.08   0.00     0.11   0.04  -0.00
   9   1    -0.14   0.00   0.00    -0.02   0.04   0.00     0.09  -0.15  -0.00
  10   1     0.06  -0.03  -0.00     0.10   0.07  -0.00    -0.14  -0.16   0.00
  11   1     0.05   0.03  -0.00    -0.10   0.07   0.00     0.13  -0.16  -0.00
  12   1    -0.19  -0.04   0.00     0.03   0.04  -0.00    -0.07  -0.14   0.00
  13   6     0.08  -0.00   0.00    -0.00   0.02  -0.00    -0.00  -0.04  -0.00
  14   7     0.17   0.00  -0.00    -0.00  -0.01   0.00    -0.01   0.01  -0.00
                     28                     29                     30
                        a                      a                      a 
 Frequencies --  1479.8066              1556.4684              1588.4907
 Red. masses --     9.8437                11.5678                11.4937
 Frc consts  --     0.0000                 0.0000                 0.0000
 IR Inten    --    92.7700                42.7983               346.0328
 Raman Activ --     0.0000                 0.0000                 0.0000
 Depolar     --     0.0000                 0.0000                 0.0000
 Atom AN      X      Y      Z        X      Y      Z        X      Y      Z
   1   6     0.42   0.02   0.00    -0.00  -0.45   0.00     0.24  -0.03   0.00
   2   6    -0.20   0.22   0.00    -0.15   0.27   0.00    -0.44   0.13   0.00
   3   6    -0.19  -0.22   0.00    -0.14  -0.32   0.00     0.43   0.09  -0.00
   4   6     0.46  -0.03  -0.00     0.03   0.57  -0.00    -0.23   0.05   0.00
   5   6    -0.19   0.24   0.00     0.06  -0.28   0.00     0.47  -0.14  -0.00
   6   6    -0.22  -0.24   0.00     0.20   0.28  -0.00    -0.43  -0.09   0.00
   7   8    -0.14   0.01   0.00    -0.03  -0.06   0.00     0.01  -0.01  -0.00
   8   1    -0.06  -0.02   0.00     0.11   0.04  -0.00     0.03   0.02   0.00
   9   1     0.21  -0.09  -0.00     0.09  -0.01  -0.00     0.08  -0.08   0.00
  10   1     0.21   0.08  -0.00     0.09  -0.01  -0.00    -0.07  -0.08   0.00
  11   1     0.20  -0.08  -0.00    -0.05  -0.03   0.00    -0.08   0.08   0.00
  12   1     0.21   0.09  -0.00    -0.09  -0.02  -0.00     0.06   0.08   0.00
  13   6    -0.03  -0.00  -0.00     0.00   0.02  -0.00    -0.02   0.00  -0.00
  14   7    -0.10  -0.00   0.00    -0.00  -0.01   0.00    -0.01  -0.00   0.00
                     31                     32                     33
                        a                      a                      a 
 Frequencies --  2348.7710              3085.1104              3096.9026
 Red. masses --    12.7815                 1.7963                 1.8145
 Frc consts  --     0.0000                 0.0000                 0.0000
 IR Inten    --   689.9906                27.8580                44.6621
 Raman Activ --     0.0000                 0.0000                 0.0000
 Depolar     --     0.0000                 0.0000                 0.0000
 Atom AN      X      Y      Z        X      Y      Z        X      Y      Z
   1   6     0.09   0.00   0.00     0.00   0.00  -0.00     0.01  -0.00  -0.00
   2   6     0.02  -0.01   0.00     0.06   0.10  -0.00    -0.04  -0.06   0.00
   3   6    -0.01  -0.00   0.00     0.12  -0.21  -0.00     0.02  -0.04  -0.00
   4   6     0.02   0.00  -0.00     0.01  -0.00  -0.00     0.00   0.00  -0.00
   5   6    -0.01   0.00   0.00    -0.01  -0.01   0.00     0.03   0.06  -0.00
   6   6     0.02   0.01  -0.00    -0.01   0.01  -0.00     0.13  -0.21   0.00
   7   8    -0.01  -0.00   0.00    -0.00   0.00   0.00    -0.00  -0.00   0.00
   8   1     0.00   0.00   0.00    -0.00  -0.00  -0.00    -0.00   0.00   0.00
   9   1    -0.00  -0.00   0.00    -0.21  -0.37   0.00     0.12   0.21  -0.00
  10   1    -0.00  -0.00   0.00    -0.43   0.75   0.00    -0.08   0.14   0.00
  11   1    -0.00   0.00   0.00     0.02   0.03  -0.00    -0.14  -0.24   0.00
  12   1    -0.00   0.00   0.00     0.02  -0.03   0.00    -0.44   0.75  -0.00
  13   6    -0.78  -0.01  -0.00    -0.00  -0.00  -0.00     0.00  -0.00   0.00
  14   7     0.62   0.01  -0.00     0.00   0.00  -0.00    -0.00   0.00  -0.00
                     34                     35                     36
                        a                      a                      a 
 Frequencies --  3099.6508              3114.9114              3426.9120
 Red. masses --     1.8688                 1.8680                 1.8625
 Frc consts  --     0.0000                 0.0000                 0.0000
 IR Inten    --    34.0135                32.0182               201.4813
 Raman Activ --     0.0000                 0.0000                 0.0000
 Depolar     --     0.0000                 0.0000                 0.0000
 Atom AN      X      Y      Z        X      Y      Z        X      Y      Z
   1   6    -0.01   0.00   0.00     0.00   0.00  -0.00    -0.00   0.00   0.00
   2   6    -0.12  -0.21   0.00     0.00   0.01  -0.00     0.00  -0.00  -0.00
   3   6     0.06  -0.10  -0.00    -0.00   0.01   0.00    -0.00  -0.00  -0.00
   4   6     0.00   0.00  -0.00    -0.01  -0.00   0.00     0.01  -0.01  -0.00
   5   6    -0.02  -0.03   0.00    -0.14  -0.23   0.00    -0.00  -0.00   0.00
   6   6    -0.04   0.06  -0.00     0.05  -0.08   0.00     0.00  -0.00   0.00
   7   8    -0.00   0.00   0.00     0.00   0.00  -0.00     0.10  -0.22  -0.00
   8   1    -0.00  -0.00  -0.00     0.00  -0.01  -0.00    -0.41   0.88   0.00
   9   1     0.41   0.72  -0.00    -0.01  -0.03   0.00    -0.00  -0.00   0.00
  10   1    -0.19   0.34   0.00     0.02  -0.03  -0.00     0.00   0.00  -0.00
  11   1     0.07   0.11  -0.00     0.46   0.79  -0.00     0.00   0.01  -0.00
  12   1     0.13  -0.23   0.00    -0.15   0.26  -0.00     0.00   0.00   0.00
  13   6    -0.00  -0.00  -0.00     0.00  -0.00   0.00     0.00   0.00   0.00
  14   7     0.00   0.00  -0.00    -0.00   0.00   0.00    -0.00   0.00   0.00
