14
 energy: -24.491232355257 gnorm: 0.000905939541 xtb: 6.4.1 (afa7bdf)
C        -1.07565926223924   -0.00071594988226    0.00010915682493
C        -0.36657246519099   -1.20426980545979    0.00011229245834
C         1.01164914920727   -1.19271086541110    0.00001943439870
C         1.70495026659485    0.01808840635147   -0.00003951998599
C         0.99290811187046    1.22066266599356   -0.00000311359530
C        -0.38269356108087    1.21441136935235    0.00008345628951
O         3.04951052155298    0.08321674109248   -0.00010385901440
H         3.45088005481603   -0.80071611759758   -0.00015859503101
H        -0.90527168431943   -2.13940310327080    0.00013245377555
H         1.55281942046777   -2.12683942318047   -0.00001421105534
H         1.54607229115367    2.14595911132627   -0.00005578261035
H        -0.93382928275989    2.14202702122496    0.00006874315100
C        -2.48230060845101   -0.01204807356854   -0.00010295505556
N        -3.63232248523386   -0.02253146076850   -0.00006864524008
