      -----------------------------------------------------------      
     |                   =====================                   |     
     |                           x T B                           |     
     |                   =====================                   |     
     |                         S. Grimme                         |     
     |          Mulliken Center for Theoretical Chemistry        |     
     |                    University of Bonn                     |     
      -----------------------------------------------------------      

   * xtb version 6.4.1 (afa7bdf) compiled by 'ehlert@majestix' on 2021-06-10

   xtb is free software: you can redistribute it and/or modify it under
   the terms of the GNU Lesser General Public License as published by
   the Free Software Foundation, either version 3 of the License, or
   (at your option) any later version.
   
   xtb is distributed in the hope that it will be useful,
   but WITHOUT ANY WARRANTY; without even the implied warranty of
   MERCHANTABILITY or FITNESS FOR A PARTICULAR PURPOSE.  See the
   GNU Lesser General Public License for more details.
   
   Cite this work as:
   * C. Bannwarth, E. Caldeweyher, S. Ehlert, A. Hansen, P. Pracht,
     J. Seibert, S. Spicher, S. Grimme, WIREs Comput. Mol. Sci., 2020, 11,
     e01493. DOI: 10.1002/wcms.1493
   
   for GFN2-xTB:
   * C. Bannwarth, S. Ehlert and S. Grimme., J. Chem. Theory Comput., 2019,
     15, 1652-1671. DOI: 10.1021/acs.jctc.8b01176
   for GFN1-xTB:
   * S. Grimme, C. Bannwarth, P. Shushkov, J. Chem. Theory Comput., 2017,
     13, 1989-2009. DOI: 10.1021/acs.jctc.7b00118
   for GFN0-xTB:
   * P. Pracht, E. Caldeweyher, S. Ehlert, S. Grimme, ChemRxiv, 2019, preprint.
     DOI: 10.26434/chemrxiv.8326202.v1
   for GFN-FF:
   * S. Spicher and S. Grimme, Angew. Chem. Int. Ed., 2020, 59, 15665-15673.
     DOI: 10.1002/anie.202004239
   
   for DFT-D4:
   * E. Caldeweyher, C. Bannwarth and S. Grimme, J. Chem. Phys., 2017,
     147, 034112. DOI: 10.1063/1.4993215
   * E. Caldeweyher, S. Ehlert, A. Hansen, H. Neugebauer, S. Spicher,
     C. Bannwarth and S. Grimme, J. Chem. Phys., 2019, 150, 154122.
     DOI: 10.1063/1.5090222
   * E. Caldeweyher, J.-M. Mewes, S. Ehlert and S. Grimme, Phys. Chem. Chem. Phys.
     2020, 22, 8499-8512. DOI: 10.1039/D0CP00502A
   
   for sTDA-xTB:
   * S. Grimme and C. Bannwarth, J. Chem. Phys., 2016, 145, 054103.
     DOI: 10.1063/1.4959605
   
   in the mass-spec context:
   * V. Asgeirsson, C. Bauer and S. Grimme, Chem. Sci., 2017, 8, 4879.
     DOI: 10.1039/c7sc00601b
   * J. Koopman and S. Grimme, ACS Omega 2019, 4, 12, 15120-15133.
     DOI: 10.1021/acsomega.9b02011
   
   for metadynamics refer to:
   * S. Grimme, J. Chem. Theory Comput., 2019, 155, 2847-2862
     DOI: 10.1021/acs.jctc.9b00143
   
   for SPH calculations refer to:
   * S. Spicher and S. Grimme, J. Chem. Theory Comput., 2021, 17, 1701-1714
     DOI: 10.1021/acs.jctc.0c01306
   
   with help from (in alphabetical order)
   P. Atkinson, C. Bannwarth, F. Bohle, G. Brandenburg, E. Caldeweyher
   M. Checinski, S. Dohm, S. Ehlert, S. Ehrlich, I. Gerasimov, J. Koopman
   C. Lavigne, S. Lehtola, F. März, M. Müller, F. Musil, H. Neugebauer
   J. Pisarek, C. Plett, P. Pracht, J. Seibert, P. Shushkov, S. Spicher
   M. Stahn, M. Steiner, T. Strunk, J. Stückrath, T. Rose, and J. Unsleber
   
 * started run on 2021/11/15 at 09:36:09.223     

           -------------------------------------------------
          |                Calculation Setup                |
           -------------------------------------------------

          program call               : xtb 02_2-methoxy-4-formylphenol.xyz --gfn2 --chrg 0 --uhf 0 --alpb water --ohess -P 1
          coordinate file            : 02_2-methoxy-4-formylphenol.xyz
          omp threads                :                     1
          number of atoms            :                    19
          number of electrons        :                    58
          charge                     :                     0
          spin                       :                   0.0
          first test random number   :      0.48442660792557

   ID    Z sym.   atoms
    1    6 C      1-6, 11, 17
    2    8 O      7, 10, 18
    3    1 H      8, 9, 12-16, 19

           -------------------------------------------------
          |                 G F N 2 - x T B                 |
           -------------------------------------------------

        Reference                      10.1021/acs.jctc.8b01176
      * Hamiltonian:
        H0-scaling (s, p, d)           1.850000    2.230000    2.230000
        zeta-weighting                 0.500000
      * Dispersion:
        s8                             2.700000
        a1                             0.520000
        a2                             5.000000
        s9                             5.000000
      * Repulsion:
        kExp                           1.500000    1.000000
        rExp                           1.000000
      * Coulomb:
        alpha                          2.000000
        third order                    shell-resolved
        anisotropic                    true
        a3                             3.000000
        a5                             4.000000
        cn-shift                       1.200000
        cn-exp                         4.000000
        max-rad                        5.000000

      * Solvation model:               ALPB
        Solvent                        water
        Parameter file                 internal GFN2-xTB/ALPB
        Dielectric constant                8.0200E+01
        Reference state                gsolv [1 M gas/solution]
        Free energy shift                  1.0808E-03 Eh       6.7819E-01 kcal/mol
        Temperature                        2.9815E+02 K
        Density                            1.0000E+00 kg/L
        Solvent mass                       1.8000E+01 g/mol
        Interaction kernel             P16
        Born radius scaling (c1)           1.4744E+00
        Born radii integrator          GBOBC
        Born offset                        0.0000E+00 a0       0.0000E+00 AA
        H-bond correction              true
        Ion screening                  false
        Surface tension                    1.0000E-05 Eh       1.5569E+01 dyn/cm
        Grid points                               230 per atom

          ...................................................
          :                      SETUP                      :
          :.................................................:
          :  # basis functions                  52          :
          :  # atomic orbitals                  52          :
          :  # shells                           30          :
          :  # electrons                        58          :
          :  max. iterations                   250          :
          :  Hamiltonian                  GFN2-xTB          :
          :  restarted?                      false          :
          :  GBSA solvation                   true          :
          :  PC potential                    false          :
          :  electronic temp.          300.0000000     K    :
          :  accuracy                    1.0000000          :
          :  -> integral cutoff          0.2500000E+02      :
          :  -> integral neglect         0.1000000E-07      :
          :  -> SCF convergence          0.1000000E-05 Eh   :
          :  -> wf. convergence          0.1000000E-03 e    :
          :  Broyden damping             0.4000000          :
          ...................................................

 iter      E             dE          RMSdq      gap      omega  full diag
   1    -33.7526867 -0.337527E+02  0.555E+00    2.63       0.0  T
   2    -33.7944145 -0.417277E-01  0.292E+00    2.41       1.0  T
   3    -33.7932402  0.117429E-02  0.120E+00    2.67       1.0  T
   4    -33.7982562 -0.501604E-02  0.215E-01    2.56       1.0  T
   5    -33.7985156 -0.259356E-03  0.922E-02    2.56       1.0  T
   6    -33.7985194 -0.386013E-05  0.462E-02    2.56       1.0  T
   7    -33.7985302 -0.107750E-04  0.119E-02    2.56       1.9  T
   8    -33.7985307 -0.495516E-06  0.657E-03    2.56       3.5  T
   9    -33.7985308 -0.122319E-06  0.356E-03    2.56       6.4  T
  10    -33.7985309 -0.586355E-07  0.119E-03    2.56      19.3  T
  11    -33.7985309 -0.509364E-08  0.503E-04    2.56      45.6  T
  12    -33.7985309 -0.973884E-09  0.258E-04    2.56      88.8  T

   *** convergence criteria satisfied after 12 iterations ***

         #    Occupation            Energy/Eh            Energy/eV
      -------------------------------------------------------------
         1        2.0000           -0.7336165             -19.9627
       ...           ...                  ...                  ...
        23        2.0000           -0.4754420             -12.9374
        24        2.0000           -0.4610600             -12.5461
        25        2.0000           -0.4586626             -12.4808
        26        2.0000           -0.4424143             -12.0387
        27        2.0000           -0.4121555             -11.2153
        28        2.0000           -0.4057736             -11.0417
        29        2.0000           -0.3874391             -10.5428 (HOMO)
        30                         -0.2933728              -7.9831 (LUMO)
        31                         -0.2330651              -6.3420
        32                         -0.1981421              -5.3917
        33                         -0.0966070              -2.6288
        34                         -0.0059547              -0.1620
       ...                                ...                  ...
        52                          0.6448225              17.5465
      -------------------------------------------------------------
                  HL-Gap            0.0940663 Eh            2.5597 eV
             Fermi-level           -0.3404059 Eh           -9.2629 eV

 SCC (total)                   0 d,  0 h,  0 min,  0.018 sec
 SCC setup                      ...        0 min,  0.001 sec (  2.720%)
 Dispersion                     ...        0 min,  0.000 sec (  0.940%)
 classical contributions        ...        0 min,  0.000 sec (  0.141%)
 integral evaluation            ...        0 min,  0.003 sec ( 16.548%)
 iterations                     ...        0 min,  0.009 sec ( 47.768%)
 molecular gradient             ...        0 min,  0.006 sec ( 30.829%)
 printout                       ...        0 min,  0.000 sec (  0.913%)

         :::::::::::::::::::::::::::::::::::::::::::::::::::::
         ::                     SUMMARY                     ::
         :::::::::::::::::::::::::::::::::::::::::::::::::::::
         :: total energy             -33.391802208728 Eh    ::
         :: total w/o Gsasa/hb       -33.388472203260 Eh    ::
         :: gradient norm              0.025264687992 Eh/a0 ::
         :: HOMO-LUMO gap              2.559673332713 eV    ::
         ::.................................................::
         :: SCC energy               -33.798530883180 Eh    ::
         :: -> isotropic ES            0.073121712138 Eh    ::
         :: -> anisotropic ES          0.001411887701 Eh    ::
         :: -> anisotropic XC          0.007140775285 Eh    ::
         :: -> dispersion             -0.015448144068 Eh    ::
         :: -> Gsolv                  -0.015875687143 Eh    ::
         ::    -> Gelec               -0.012545681675 Eh    ::
         ::    -> Gsasa                0.002600675145 Eh    ::
         ::    -> Ghb                 -0.007011440312 Eh    ::
         ::    -> Gshift               0.001080759698 Eh    ::
         :: repulsion energy           0.406688904476 Eh    ::
         :: add. restraining           0.000000000000 Eh    ::
         :: total charge              -0.000000000000 e     ::
         :::::::::::::::::::::::::::::::::::::::::::::::::::::

      ----------------------------------------------------------- 
     |                   =====================                   |
     |                        A N C O P T                        |
     |                   =====================                   |
     |               Approximate Normal Coordinate               |
     |                Rational Function Optimizer                |
      ----------------------------------------------------------- 

          ...................................................
          :                      SETUP                      :
          :.................................................:
          :   optimization level            normal          :
          :   max. optcycles                   200          :
          :   ANC micro-cycles                  20          :
          :   degrees of freedom                51          :
          :.................................................:
          :   RF solver                   davidson          :
          :   write xtbopt.log                true          :
          :   linear?                        false          :
          :   energy convergence         0.5000000E-05 Eh   :
          :   grad. convergence          0.1000000E-02 Eh/α :
          :   maximium RF displ.         1.0000000          :
          :   Hlow (freq-cutoff)         0.1000000E-01      :
          :   Hmax (freq-cutoff)         5.0000000          :
          :   S6 in model hess.         20.0000000          :
          ...................................................

generating ANC from model Hessian ...
Using Lindh-Hessian (1995)
 Shifting diagonal of input Hessian by   7.528588959864631E-003
 Lowest  eigenvalues of input Hessian
    0.000000    0.000000    0.000000    0.000000    0.000000    0.000000
    0.010000    0.011742    0.012612    0.013727    0.017195    0.022451
    0.024549    0.027383    0.033984    0.035093    0.049608    0.057364
 Highest eigenvalues
    1.643265    1.795218    1.891244    2.030692    2.096316    2.195102
 

........................................................................
.............................. CYCLE    1 ..............................
........................................................................
   1    -33.7985309 -0.337985E+02  0.655E-05    2.56       0.0  T
   2    -33.7985309 -0.640199E-11  0.410E-05    2.56     559.3  T
   3    -33.7985309 -0.117240E-11  0.191E-05    2.56    1204.0  T
     SCC iter.                  ...        0 min,  0.002 sec
     gradient                   ...        0 min,  0.004 sec
 * total energy  :   -33.3918022 Eh     change       -0.2163958E-09 Eh
   gradient norm :     0.0252654 Eh/α   predicted     0.0000000E+00 (-100.00%)
   displ. norm   :     0.0706123 α      lambda       -0.1007393E-02
   maximum displ.:     0.0342412 α      in ANC's #15, #8, #25, ...

........................................................................
.............................. CYCLE    2 ..............................
........................................................................
   1    -33.8100657 -0.338101E+02  0.842E-02    2.59       0.0  T
   2    -33.8100738 -0.809995E-05  0.472E-02    2.59       1.0  T
   3    -33.8100726  0.119876E-05  0.274E-02    2.59       1.0  T
   4    -33.8100771 -0.449705E-05  0.336E-03    2.59       6.8  T
   5    -33.8100772 -0.504094E-07  0.196E-03    2.59      11.7  T
   6    -33.8100772 -0.146716E-07  0.111E-03    2.59      20.7  T
   7    -33.8100772 -0.368384E-08  0.432E-04    2.59      53.1  T
   8    -33.8100772 -0.537362E-09  0.191E-04    2.59     119.9  T
     SCC iter.                  ...        0 min,  0.004 sec
     gradient                   ...        0 min,  0.004 sec
 * total energy  :   -33.3924478 Eh     change       -0.6456076E-03 Eh
   gradient norm :     0.0108564 Eh/α   predicted    -0.5062090E-03 ( -21.59%)
   displ. norm   :     0.0372507 α      lambda       -0.1719470E-03
   maximum displ.:     0.0236730 α      in ANC's #8, #14, #15, ...

........................................................................
.............................. CYCLE    3 ..............................
........................................................................
   1    -33.8135457 -0.338135E+02  0.472E-02    2.59       0.0  T
   2    -33.8135521 -0.635064E-05  0.252E-02    2.59       1.0  T
   3    -33.8135539 -0.183626E-05  0.163E-02    2.59       1.4  T
   4    -33.8135548 -0.891194E-06  0.265E-03    2.59       8.7  T
   5    -33.8135549 -0.268283E-07  0.132E-03    2.59      17.4  T
   6    -33.8135549 -0.112959E-07  0.762E-04    2.59      30.1  T
   7    -33.8135549 -0.157959E-08  0.231E-04    2.59      99.4  T
     SCC iter.                  ...        0 min,  0.004 sec
     gradient                   ...        0 min,  0.004 sec
 * total energy  :   -33.3925494 Eh     change       -0.1016286E-03 Eh
   gradient norm :     0.0043728 Eh/α   predicted    -0.8610113E-04 ( -15.28%)
   displ. norm   :     0.0169947 α      lambda       -0.2533305E-04
   maximum displ.:     0.0121764 α      in ANC's #8, #10, #4, ...

........................................................................
.............................. CYCLE    4 ..............................
........................................................................
   1    -33.8132940 -0.338133E+02  0.198E-02    2.58       0.0  T
   2    -33.8132956 -0.161619E-05  0.105E-02    2.58       2.2  T
   3    -33.8132962 -0.553032E-06  0.646E-03    2.58       3.6  T
   4    -33.8132963 -0.107362E-06  0.150E-03    2.58      15.3  T
   5    -33.8132963 -0.462100E-08  0.588E-04    2.58      39.0  T
   6    -33.8132963 -0.304019E-08  0.300E-04    2.58      76.6  T
     SCC iter.                  ...        0 min,  0.003 sec
     gradient                   ...        0 min,  0.004 sec
 * total energy  :   -33.3925665 Eh     change       -0.1704693E-04 Eh
   gradient norm :     0.0018234 Eh/α   predicted    -0.1291590E-04 ( -24.23%)
   displ. norm   :     0.0194518 α      lambda       -0.9119854E-05
   maximum displ.:     0.0117394 α      in ANC's #8, #10, #4, ...

........................................................................
.............................. CYCLE    5 ..............................
........................................................................
   1    -33.8122768 -0.338123E+02  0.209E-02    2.58       0.0  T
   2    -33.8122780 -0.121169E-05  0.118E-02    2.58       2.0  T
   3    -33.8122783 -0.297533E-06  0.730E-03    2.58       3.1  T
   4    -33.8122785 -0.174591E-06  0.135E-03    2.58      16.9  T
   5    -33.8122785 -0.503373E-08  0.510E-04    2.58      44.9  T
   6    -33.8122785 -0.229684E-08  0.257E-04    2.58      89.2  T
     SCC iter.                  ...        0 min,  0.003 sec
     gradient                   ...        0 min,  0.004 sec
 * total energy  :   -33.3925673 Eh     change       -0.8463566E-06 Eh
   gradient norm :     0.0015597 Eh/α   predicted    -0.4562533E-05 ( 439.08%)
   displ. norm   :     0.0117510 α      lambda       -0.6806445E-05
   maximum displ.:     0.0069163 α      in ANC's #5, #13, #19, ...

........................................................................
.............................. CYCLE    6 ..............................
........................................................................
   1    -33.8121772 -0.338122E+02  0.166E-02    2.58       0.0  T
   2    -33.8121773 -0.432689E-07  0.998E-03    2.58       2.3  T
   3    -33.8121772  0.669081E-07  0.253E-03    2.58       9.1  T
   4    -33.8121773 -0.861166E-07  0.363E-04    2.58      63.3  T
   5    -33.8121773 -0.224233E-09  0.188E-04    2.58     121.7  T
     SCC iter.                  ...        0 min,  0.003 sec
     gradient                   ...        0 min,  0.004 sec
 * total energy  :   -33.3925691 Eh     change       -0.1771075E-05 Eh
   gradient norm :     0.0010942 Eh/α   predicted    -0.3404551E-05 (  92.23%)
   displ. norm   :     0.0086236 α      lambda       -0.3426179E-05
   maximum displ.:     0.0043953 α      in ANC's #8, #5, #13, ...

........................................................................
.............................. CYCLE    7 ..............................
........................................................................
   1    -33.8127275 -0.338127E+02  0.105E-02    2.58       0.0  T
   2    -33.8127277 -0.236093E-06  0.602E-03    2.58       3.8  T
   3    -33.8127278 -0.356996E-07  0.366E-03    2.58       6.3  T
   4    -33.8127278 -0.543002E-07  0.597E-04    2.58      38.4  T
   5    -33.8127278 -0.112399E-08  0.225E-04    2.58     102.1  T
     SCC iter.                  ...        0 min,  0.003 sec
     gradient                   ...        0 min,  0.004 sec
 * total energy  :   -33.3925710 Eh     change       -0.1848290E-05 Eh
   gradient norm :     0.0004825 Eh/α   predicted    -0.1733657E-05 (  -6.20%)
   displ. norm   :     0.0037661 α      lambda       -0.4234113E-06
   maximum displ.:     0.0026798 α      in ANC's #8, #10, #4, ...

   *** GEOMETRY OPTIMIZATION CONVERGED AFTER 7 ITERATIONS ***

------------------------------------------------------------------------
 total energy gain   :        -0.0007687 Eh       -0.4824 kcal/mol
 total RMSD          :         0.0269806 a0        0.0143 Å
 total power (kW/mol):        -0.2883358 (step)  -18.2321 (real)
------------------------------------------------------------------------

 ANCopt (total)                0 d,  0 h,  0 min,  0.111 sec
 optimizer setup                ...        0 min,  0.000 sec (  0.147%)
 model hessian                  ...        0 min,  0.027 sec ( 23.972%)
 ANC generation                 ...        0 min,  0.004 sec (  3.939%)
 coordinate transformation      ...        0 min,  0.008 sec (  7.097%)
 single point calculation       ...        0 min,  0.066 sec ( 59.336%)
 optimization log               ...        0 min,  0.004 sec (  3.449%)
 hessian update                 ...        0 min,  0.000 sec (  0.041%)
 rational function              ...        0 min,  0.002 sec (  1.640%)

================
 final structure:
================
19
 xtb: 6.4.1 (afa7bdf)
C         1.41621229945873   -0.18952516699130    0.00007311731258
C         0.19933466899610   -0.88722089083501    0.00005486219004
C        -0.99291771119375   -0.19756257627662   -0.00001567372681
C        -0.98533843214792    1.21703057164525   -0.00001751745979
C         0.22493900708379    1.90118377471092   -0.00000911429000
C         1.41498589101136    1.20669853217849    0.00001124885996
O        -2.13814489206815    1.90696510223919   -0.00004181832904
H        -2.89283400224722    1.29201565531196   -0.00014396328206
H         0.21871153840301   -1.96506111102872    0.00010385622398
O        -2.24144154505728   -0.75602106830528   -0.00004120725835
C        -2.34994230672463   -2.16716290655646   -0.00037651283156
H        -1.89217499878453   -2.59554262549424    0.89405362241718
H        -3.41784066313183   -2.37146166352511   -0.00055558485038
H        -1.89194071496696   -2.59511535915503   -0.89489050702126
H         2.36183401982837    1.72324846046991    0.00003465135160
H         0.20158281369120    2.97838126270709   -0.00002796499626
C         2.66557004822393   -0.92322208263357    0.00017538431022
O         3.78138924576794   -0.43418157876396    0.00000445720462
H         2.55228673385783   -2.02375032969750    0.00020566417532
 
 Bond Distances (Angstroems)
 ---------------------------
C1-C2=1.4027         C1-C6=1.3962         C1-C17=1.4489        C2-C1=1.4027         C2-C3=1.3774         C2-H9=1.0780         
C3-C2=1.3774         C3-C4=1.4146         C3-O10=1.3677        C4-C3=1.4146         C4-C5=1.3903         C4-O7=1.3435         
C5-C4=1.3903         C5-C6=1.3779         C5-H16=1.0775        C6-C1=1.3962         C6-C5=1.3779         C6-H15=1.0786        
O7-C4=1.3435         O7-H8=0.9735         H8-O7=0.9735         H9-C2=1.0780         O10-C3=1.3677        O10-C11=1.4153       
C11-O10=1.4153       C11-H12=1.0923       C11-H13=1.0873       C11-H14=1.0923       H12-C11=1.0923       H13-C11=1.0873       
H14-C11=1.0923       H15-C6=1.0786        H16-C5=1.0775        C17-C1=1.4489        C17-O18=1.2183       C17-H19=1.1063       
O18-C17=1.2183       H19-C17=1.1063       
 C  H  Rav=1.0875 sigma=0.0098  Rmin=1.0775  Rmax=1.1063     7
 C  C  Rav=1.4011 sigma=0.0230  Rmin=1.3774  Rmax=1.4489     7
 O  H  Rav=0.9735 sigma=0.0000  Rmin=0.9735  Rmax=0.9735     1
 O  C  Rav=1.3362 sigma=0.0728  Rmin=1.2183  Rmax=1.4153     4
 
 selected bond angles (degree)
 --------------------
C6-C1-C2=119.78                C17-C1-C2=119.75               C17-C1-C6=120.47               C3-C2-C1=120.13                
H9-C2-C1=118.80                H9-C2-C3=121.08                C4-C3-C2=119.74                O10-C3-C2=125.85               
O10-C3-C4=114.41               C5-C4-C3=119.79                O7-C4-C3=120.59                O7-C4-C5=119.62                
C6-C5-C4=120.25                H16-C5-C4=118.24               H16-C5-C6=121.51               C5-C6-C1=120.32                
H15-C6-C1=118.56               H15-C6-C5=121.12               H8-O7-C4=109.93                C11-O10-C3=118.50              
 
 selected dihedral angles (degree)
 ---------------------------------
C3-C2-C1-C6=  0.00            C3-C2-C1-C17=180.00           H9-C2-C1-C6=180.00            H9-C2-C1-C17=  0.00           
C4-C3-C2-C1=  0.00            C4-C3-C2-H9=180.00            O10-C3-C2-C1=180.00           O10-C3-C2-H9=  0.00           
C5-C4-C3-C2=  0.00            C5-C4-C3-O10=180.00           O7-C4-C3-C2=180.00            O7-C4-C3-O10=  0.00           
C6-C5-C4-C3=  0.00            C6-C5-C4-O7=180.00            H16-C5-C4-C3=180.00           H16-C5-C4-O7=  0.00           
C5-C6-C1-C2=  0.00            C5-C6-C1-C17=180.00           H15-C6-C1-C2=180.00           H15-C6-C1-C17=  0.00          
C1-C6-C5-C4=  0.00            C1-C6-C5-H16=180.00           H15-C6-C5-C4=180.00           H15-C6-C5-H16=  0.00          
H8-O7-C4-C3=  0.00            H8-O7-C4-C5=179.99            C11-O10-C3-C2=  0.00          C11-O10-C3-C4=179.98          
           -------------------------------------------------
          |                Final Singlepoint                |
           -------------------------------------------------

          ...................................................
          :                      SETUP                      :
          :.................................................:
          :  # basis functions                  52          :
          :  # atomic orbitals                  52          :
          :  # shells                           30          :
          :  # electrons                        58          :
          :  max. iterations                   250          :
          :  Hamiltonian                  GFN2-xTB          :
          :  restarted?                      false          :
          :  GBSA solvation                   true          :
          :  PC potential                    false          :
          :  electronic temp.          300.0000000     K    :
          :  accuracy                    1.0000000          :
          :  -> integral cutoff          0.2500000E+02      :
          :  -> integral neglect         0.1000000E-07      :
          :  -> SCF convergence          0.1000000E-05 Eh   :
          :  -> wf. convergence          0.1000000E-03 e    :
          :  Broyden damping             0.4000000          :
          ...................................................

 iter      E             dE          RMSdq      gap      omega  full diag
   1    -33.8127278 -0.338127E+02  0.113E-04    2.58       0.0  T
   2    -33.8127278 -0.152127E-10  0.761E-05    2.58     301.5  T
   3    -33.8127278 -0.250111E-11  0.347E-05    2.58     661.3  T

   *** convergence criteria satisfied after 3 iterations ***

         #    Occupation            Energy/Eh            Energy/eV
      -------------------------------------------------------------
         1        2.0000           -0.7336196             -19.9628
       ...           ...                  ...                  ...
        23        2.0000           -0.4752512             -12.9322
        24        2.0000           -0.4605264             -12.5316
        25        2.0000           -0.4586008             -12.4792
        26        2.0000           -0.4414245             -12.0118
        27        2.0000           -0.4126644             -11.2292
        28        2.0000           -0.4048066             -11.0153
        29        2.0000           -0.3869697             -10.5300 (HOMO)
        30                         -0.2920785              -7.9479 (LUMO)
        31                         -0.2310745              -6.2879
        32                         -0.1955070              -5.3200
        33                         -0.0929057              -2.5281
        34                          0.0016382               0.0446
       ...                                ...                  ...
        52                          0.6620057              18.0141
      -------------------------------------------------------------
                  HL-Gap            0.0948912 Eh            2.5821 eV
             Fermi-level           -0.3395241 Eh           -9.2389 eV

 SCC (total)                   0 d,  0 h,  0 min,  0.012 sec
 SCC setup                      ...        0 min,  0.000 sec (  3.187%)
 Dispersion                     ...        0 min,  0.000 sec (  0.398%)
 classical contributions        ...        0 min,  0.000 sec (  0.138%)
 integral evaluation            ...        0 min,  0.002 sec ( 16.868%)
 iterations                     ...        0 min,  0.004 sec ( 30.696%)
 molecular gradient             ...        0 min,  0.005 sec ( 47.139%)
 printout                       ...        0 min,  0.000 sec (  1.385%)

         :::::::::::::::::::::::::::::::::::::::::::::::::::::
         ::                     SUMMARY                     ::
         :::::::::::::::::::::::::::::::::::::::::::::::::::::
         :: total energy             -33.392570958260 Eh    ::
         :: total w/o Gsasa/hb       -33.389053954112 Eh    ::
         :: gradient norm              0.000479456280 Eh/a0 ::
         :: HOMO-LUMO gap              2.582120915743 eV    ::
         ::.................................................::
         :: SCC energy               -33.812727827217 Eh    ::
         :: -> isotropic ES            0.072803769899 Eh    ::
         :: -> anisotropic ES          0.001143544442 Eh    ::
         :: -> anisotropic XC          0.006368276755 Eh    ::
         :: -> dispersion             -0.015501709794 Eh    ::
         :: -> Gsolv                  -0.016072766275 Eh    ::
         ::    -> Gelec               -0.012555762126 Eh    ::
         ::    -> Gsasa                0.002563473012 Eh    ::
         ::    -> Ghb                 -0.007161236859 Eh    ::
         ::    -> Gshift               0.001080759698 Eh    ::
         :: repulsion energy           0.420117146408 Eh    ::
         :: add. restraining           0.000000000000 Eh    ::
         :: total charge               0.000000000000 e     ::
         :::::::::::::::::::::::::::::::::::::::::::::::::::::

           ------------------------------------------------- 
          |                Numerical Hessian                |
           ------------------------------------------------- 
step length          :   0.00500
SCC accuracy         :   0.30000
Hessian scale factor :   1.00000
frozen atoms in %    :   0.00000    0
RMS gradient         :   0.00048
estimated CPU  time      0.02 min
estimated wall time      0.02 min

writing file <hessian>.

 projected vibrational frequencies (cm⁻¹)
eigval :       -0.00    -0.00    -0.00     0.00     0.00     0.00
eigval :       85.62    93.48   150.70   157.96   209.96   227.24
eigval :      264.95   319.25   328.16   388.89   435.74   492.53
eigval :      507.72   529.60   555.70   614.00   681.07   755.62
eigval :      811.21   825.09   849.62   912.42   919.83   951.47
eigval :     1035.02  1100.12  1115.49  1128.15  1146.56  1158.47
eigval :     1210.93  1244.84  1292.35  1353.66  1386.51  1392.88
eigval :     1436.70  1453.45  1468.02  1484.81  1554.33  1571.69
eigval :     1664.92  2763.38  2960.06  2970.38  3042.74  3105.60
eigval :     3108.21  3121.15  3385.28
           -------------------------------------------------
          |                Property Printout                |
           -------------------------------------------------

    * Orbital Energies and Occupations

         #    Occupation            Energy/Eh            Energy/eV
      -------------------------------------------------------------
         1        2.0000           -0.7336193             -19.9628
       ...           ...                  ...                  ...
        17        2.0000           -0.5322045             -14.4820
        18        2.0000           -0.5315886             -14.4653
        19        2.0000           -0.5149949             -14.0137
        20        2.0000           -0.5013449             -13.6423
        21        2.0000           -0.4863842             -13.2352
        22        2.0000           -0.4793922             -13.0449
        23        2.0000           -0.4752512             -12.9322
        24        2.0000           -0.4605262             -12.5316
        25        2.0000           -0.4586008             -12.4792
        26        2.0000           -0.4414245             -12.0118
        27        2.0000           -0.4126643             -11.2292
        28        2.0000           -0.4048066             -11.0153
        29        2.0000           -0.3869696             -10.5300 (HOMO)
        30                         -0.2920784              -7.9479 (LUMO)
        31                         -0.2310745              -6.2879
        32                         -0.1955069              -5.3200
        33                         -0.0929057              -2.5281
        34                          0.0016383               0.0446
        35                          0.0737820               2.0077
        36                          0.1017353               2.7684
        37                          0.1107270               3.0130
        38                          0.1218857               3.3167
        39                          0.1607578               4.3744
        40                          0.1646589               4.4806
       ...                                ...                  ...
        52                          0.6620056              18.0141
      -------------------------------------------------------------
                  HL-Gap            0.0948911 Eh            2.5821 eV
             Fermi-level           -0.3395240 Eh           -9.2389 eV

     #   Z          covCN         q      C6AA      α(0)
     1   6 C        2.970    -0.026    28.652     8.780
     2   6 C        2.919    -0.067    29.680     8.934
     3   6 C        2.859     0.114    25.493     8.276
     4   6 C        2.846     0.145    24.844     8.169
     5   6 C        2.915    -0.062    29.541     8.913
     6   6 C        2.922    -0.027    28.676     8.782
     7   8 O        1.659    -0.411    21.058     6.195
     8   1 H        0.804     0.391     0.501     1.112
     9   1 H        0.926     0.066     2.129     2.282
    10   8 O        1.704    -0.292    18.847     5.861
    11   6 C        3.641     0.014    20.701     6.542
    12   1 H        0.924     0.059     2.210     2.325
    13   1 H        0.925     0.089     1.889     2.149
    14   1 H        0.924     0.059     2.210     2.325
    15   1 H        0.926     0.070     2.090     2.261
    16   1 H        0.926     0.079     1.985     2.203
    17   6 C        2.770     0.210    23.549     7.948
    18   8 O        0.856    -0.431    22.310     6.333
    19   1 H        0.922     0.021     2.725     2.582

 Mol. C6AA /au·bohr⁶  :       4292.764818
 Mol. C8AA /au·bohr⁸  :     102058.910511
 Mol. α(0) /au        :        101.969341


Wiberg/Mayer (AO) data.
largest (>0.10) Wiberg bond orders for each atom

 ---------------------------------------------------------------------------
     #   Z sym  total        # sym  WBO       # sym  WBO       # sym  WBO
 ---------------------------------------------------------------------------
     1   6 C    3.987 --     6 C    1.354     2 C    1.318    17 C    1.114
     2   6 C    3.987 --     3 C    1.445     1 C    1.318     9 H    0.960
     3   6 C    3.941 --     2 C    1.445     4 C    1.250    10 O    1.055
     4   6 C    3.949 --     5 C    1.369     3 C    1.250     7 O    1.128
     5   6 C    3.985 --     6 C    1.466     4 C    1.369    16 H    0.963
     6   6 C    3.988 --     5 C    1.466     1 C    1.354    15 H    0.965
     7   8 O    2.123 --     4 C    1.128     8 H    0.822
     8   1 H    0.847 --     7 O    0.822
     9   1 H    0.996 --     2 C    0.960
    10   8 O    2.212 --     3 C    1.055    11 C    0.966
    11   6 C    3.925 --    14 H    0.977    12 H    0.977    13 H    0.976
                            10 O    0.966
    12   1 H    0.996 --    11 C    0.977
    13   1 H    0.992 --    11 C    0.976
    14   1 H    0.996 --    11 C    0.977
    15   1 H    0.995 --     6 C    0.965
    16   1 H    0.992 --     5 C    0.963
    17   6 C    3.910 --    18 O    1.779     1 C    1.114    19 H    0.933
    18   8 O    1.999 --    17 C    1.779
    19   1 H    0.999 --    17 C    0.933
 ---------------------------------------------------------------------------

Topologies differ in total number of bonds
Writing topology from bond orders to xtbtopo.mol

molecular dipole:
                 x           y           z       tot (Debye)
 q only:       -2.532      -0.678      -0.000
   full:       -2.588      -1.049      -0.000       7.098
molecular quadrupole (traceless):
                xx          xy          yy          xz          yz          zz
 q only:      -12.080       6.814      10.079       0.003       0.001       2.000
  q+dip:      -13.341       6.853      11.624       0.003       0.000       1.717
   full:      -14.494       7.107      10.269       0.003       0.000       4.225

           -------------------------------------------------
          |                Geometry Summary                 |
           -------------------------------------------------

      molecular mass/u    :      152.1476280
   center of mass at/Å    :        0.0313004       0.0354165      -0.0000247
  moments of inertia/u·Å² :        0.2680041E+03   0.6481951E+03   0.9129736E+03
rotational constants/cm⁻¹ :        0.6290064E-01   0.2600703E-01   0.1846454E-01

 * 17 selected distances

     #   Z          #   Z                                           value/Å
     1   6 C        2   6 C                                       1.4027011
     2   6 C        3   6 C                                       1.3773505
     3   6 C        4   6 C                                       1.4146135
     4   6 C        5   6 C                                       1.3902651
     1   6 C        6   6 C                                       1.3962242
     5   6 C        6   6 C                                       1.3778684
     4   6 C        7   8 O                                       1.3434926
     7   8 O        8   1 H                                       0.9735083 (min)
     2   6 C        9   1 H                                       1.0780144
     3   6 C       10   8 O                                       1.3677308
    10   8 O       11   6 C                                       1.4153070 (max)
    11   6 C       12   1 H                                       1.0922753
    11   6 C       13   1 H                                       1.0872649
    11   6 C       14   1 H                                       1.0922747
     6   6 C       15   1 H                                       1.0785848
     5   6 C       16   1 H                                       1.0774507
    17   6 C       18   8 O                                       1.2182829

 * 4 distinct bonds (by element types)

   Z      Z             #   av. dist./Å        max./Å        min./Å
   1 H    6 C           6     1.0843108     1.0922753     1.0774507
   6 C    6 C           6     1.3931705     1.4146135     1.3773505
   1 H    8 O           1     0.9735083     0.9735083     0.9735083
   6 C    8 O           4     1.3362033     1.4153070     1.2182829

           -------------------------------------------------
          |               Frequency Printout                |
           -------------------------------------------------
 projected vibrational frequencies (cm⁻¹)
eigval :       -0.00    -0.00    -0.00     0.00     0.00     0.00
eigval :       85.62    93.48   150.70   157.96   209.96   227.24
eigval :      264.95   319.25   328.16   388.89   435.74   492.53
eigval :      507.72   529.60   555.70   614.00   681.07   755.62
eigval :      811.21   825.09   849.62   912.42   919.83   951.47
eigval :     1035.02  1100.12  1115.49  1128.15  1146.56  1158.47
eigval :     1210.93  1244.84  1292.35  1353.66  1386.51  1392.88
eigval :     1436.70  1453.45  1468.02  1484.81  1554.33  1571.69
eigval :     1664.92  2763.38  2960.06  2970.38  3042.74  3105.60
eigval :     3108.21  3121.15  3385.28
 reduced masses (amu)
   1: 13.00   2: 11.24   3: 12.88   4: 12.69   5: 13.38   6: 12.77   7: 11.02   8: 12.26
   9: 11.75  10: 12.05  11:  4.10  12: 12.49  13:  7.43  14: 11.97  15: 10.41  16: 13.06
  17:  9.84  18: 12.58  19:  1.97  20: 11.81  21: 10.58  22: 11.62  23: 11.76  24: 11.44
  25: 11.86  26:  4.04  27:  3.42  28:  4.16  29:  5.63  30: 10.01  31: 10.72  32:  6.40
  33:  3.70  34:  5.44  35:  5.94  36:  5.59  37:  7.66  38:  3.89  39: 11.47  40:  8.08
  41:  5.36  42:  4.14  43:  9.99  44:  1.54  45:  1.97  46: 10.72  47: 11.62  48: 11.57
  49: 13.28  50:  1.67  51:  1.96  52:  1.43  53:  1.72  54:  1.81  55:  1.83  56:  1.87
  57:  1.86
 IR intensities (km·mol⁻¹)
   1:  0.38   2:  3.17   3:  0.57   4:  1.01   5:  1.32   6:  0.12   7:  0.71   8:  9.99
   9:  8.84  10:  5.37  11:  1.98  12:  2.23  13:  0.06  14: 17.51  15:  1.78  16:  1.99
  17:  7.67  18: 10.85  19:218.08  20: 38.25  21:  3.53  22: 15.81  23:  0.06  24: 55.60
  25:100.14  26: 52.27  27:  0.77  28:  0.84  29:  0.42  30: 17.44  31: 56.48  32: 70.37
  33:  2.34  34:578.00  35:126.54  36:108.38  37: 55.63  38: 66.24  39:******  40:102.80
  41: 14.19  42: 12.15  43: 49.63  44: 10.02  45: 69.11  46:551.94  47:273.34  48:189.50
  49:784.25  50:267.14  51: 37.39  52: 37.69  53:  9.59  54: 11.85  55: 18.02  56: 20.48
  57:320.89
 Raman intensities (amu)
   1:  0.00   2:  0.00   3:  0.00   4:  0.00   5:  0.00   6:  0.00   7:  0.00   8:  0.00
   9:  0.00  10:  0.00  11:  0.00  12:  0.00  13:  0.00  14:  0.00  15:  0.00  16:  0.00
  17:  0.00  18:  0.00  19:  0.00  20:  0.00  21:  0.00  22:  0.00  23:  0.00  24:  0.00
  25:  0.00  26:  0.00  27:  0.00  28:  0.00  29:  0.00  30:  0.00  31:  0.00  32:  0.00
  33:  0.00  34:  0.00  35:  0.00  36:  0.00  37:  0.00  38:  0.00  39:  0.00  40:  0.00
  41:  0.00  42:  0.00  43:  0.00  44:  0.00  45:  0.00  46:  0.00  47:  0.00  48:  0.00
  49:  0.00  50:  0.00  51:  0.00  52:  0.00  53:  0.00  54:  0.00  55:  0.00  56:  0.00
  57:  0.00
 output can be read by thermo (or use thermo option).
 writing <g98.out> molden fake output.
 recommended (thermochemical) frequency scaling factor: 1.0
           -------------------------------------------------
          |             Thermodynamic Functions             |
           -------------------------------------------------

Molecule has the following symmetry elements: (sigma) 
It seems to be the Cs point group
cs  symmetry found (for desy threshold:  0.10E+00) used in thermo

          ...................................................
          :                      SETUP                      :
          :.................................................:
          :  # frequencies                          51      :
          :  # imaginary freq.                       0      :
          :  linear?                             false      :
          :  only rotor calc.                    false      :
          :  symmetry                               cs      :
          :  rotational number                       1      :
          :  scaling factor                  1.0000000      :
          :  rotor cutoff                   50.0000000 cm⁻¹ :
          :  imag. cutoff                  -20.0000000 cm⁻¹ :
          :.................................................:

    mode    ω/cm⁻¹     T·S(HO)/kcal·mol⁻¹    T·S(FR)/kcal·mol⁻¹   T·S(vib)
   ------------------------------------------------------------------------
       1     85.62    -1.12040 ( 89.58%)    -0.89712 ( 10.42%)    -1.09713
       2     93.48    -1.06913 ( 92.43%)    -0.87109 (  7.57%)    -1.05415
       3    150.70    -0.79409 ( 98.80%)    -0.72966 (  1.20%)    -0.79332
       4    157.96    -0.76747 ( 99.01%)    -0.71573 (  0.99%)    -0.76695
       5    209.96    -0.60942 ( 99.68%)    -0.63143 (  0.32%)    -0.60949
       6    227.24    -0.56667 ( 99.77%)    -0.60801 (  0.23%)    -0.56677
       7    264.95    -0.48566 ( 99.87%)    -0.56253 (  0.13%)    -0.48576
   ------------------------------------------------------------------------

   temp. (K)  partition function   enthalpy   heat capacity  entropy
                                   cal/mol     cal/K/mol   cal/K/mol   J/K/mol
 298.15  VIB   375.                 4702.788     32.823     27.423
         ROT  0.962E+06              888.752      2.981     30.359
         INT  0.361E+09             5591.540     35.804     57.782
         TR   0.182E+28             1481.254      4.968     40.950
         TOT                        7072.7943    40.7721    98.7323   413.0957

       T/K    H(0)-H(T)+PV         H(T)/Eh          T*S/Eh         G(T)/Eh
   ------------------------------------------------------------------------
    298.15    0.112712E-01    0.151888E+00    0.469109E-01    0.104977E+00
   ------------------------------------------------------------------------

         :::::::::::::::::::::::::::::::::::::::::::::::::::::
         ::                  THERMODYNAMIC                  ::
         :::::::::::::::::::::::::::::::::::::::::::::::::::::
         :: total free energy         -33.287593974722 Eh   ::
         ::.................................................::
         :: total energy              -33.392570956919 Eh   ::
         :: zero point energy           0.140616645411 Eh   ::
         :: G(RRHO) w/o ZPVE           -0.035639663214 Eh   ::
         :: G(RRHO) contrib.            0.104976982197 Eh   ::
         :::::::::::::::::::::::::::::::::::::::::::::::::::::

optimized geometry written to: xtbopt.xyz


           -------------------------------------------------
          | TOTAL ENERGY              -33.392570956919 Eh   |
          | TOTAL ENTHALPY            -33.240683096342 Eh   |
          | TOTAL FREE ENERGY         -33.287593974722 Eh   |
          | GRADIENT NORM               0.000479093874 Eh/α |
          | HOMO-LUMO GAP               2.582119465046 eV   |
           -------------------------------------------------

------------------------------------------------------------------------
 * finished run on 2021/11/15 at 09:36:10.452     
------------------------------------------------------------------------
 total:
 * wall-time:     0 d,  0 h,  0 min,  1.230 sec
 *  cpu-time:     0 d,  0 h,  0 min,  1.141 sec
 * ratio c/w:     0.928 speedup
 SCF:
 * wall-time:     0 d,  0 h,  0 min,  0.019 sec
 *  cpu-time:     0 d,  0 h,  0 min,  0.016 sec
 * ratio c/w:     0.839 speedup
 ANC optimizer:
 * wall-time:     0 d,  0 h,  0 min,  0.124 sec
 *  cpu-time:     0 d,  0 h,  0 min,  0.047 sec
 * ratio c/w:     0.378 speedup
 analytical hessian:
 * wall-time:     0 d,  0 h,  0 min,  1.046 sec
 *  cpu-time:     0 d,  0 h,  0 min,  1.047 sec
 * ratio c/w:     1.001 speedup

