 Entering Gaussian System
 *********************************************
 Gaussian 98:
 frequency output generated by the xtb code
 *********************************************
                         Standard orientation:
 --------------------------------------------------------------------
  Center     Atomic     Atomic              Coordinates (Angstroms)
  Number     Number      Type              X           Y           Z
 --------------------------------------------------------------------
    1          6             0        1.416211   -0.189533    0.000069
    2          6             0        0.199330   -0.887222    0.000056
    3          6             0       -0.992919   -0.197557   -0.000012
    4          6             0       -0.985332    1.217036   -0.000016
    5          6             0        0.224949    1.901183   -0.000013
    6          6             0        1.414992    1.206691    0.000004
    7          8             0       -2.138135    1.906976   -0.000038
    8          1             0       -2.892827    1.292031   -0.000136
    9          1             0        0.218701   -1.965062    0.000107
   10          8             0       -2.241446   -0.756009   -0.000032
   11          6             0       -2.349954   -2.167151   -0.000365
   12          1             0       -1.892185   -2.595531    0.894065
   13          1             0       -3.417853   -2.371444   -0.000540
   14          1             0       -1.891957   -2.595107   -0.894879
   15          1             0        2.361843    1.723236    0.000023
   16          1             0        0.201598    2.978380   -0.000034
   17          6             0        2.665565   -0.923236    0.000168
   18          8             0        3.781387   -0.434201   -0.000008
   19          1             0        2.552276   -2.023764    0.000200
 --------------------------------------------------------------------
     1 basis functions        1 primitive gaussians
     1 alpha electrons        1 beta electrons
 
 Harmonic frequencies (cm**-1), IR intensities (km*mol⁻¹),
 Raman scattering activities (A**4/amu), Raman depolarization ratios,
 reduced masses (AMU), force constants (mDyne/A) and normal coordinates:
                      1                      2                      3
                        a                      a                      a 
 Frequencies --    85.6155                93.4809               150.6991
 Red. masses --    11.0170                12.2584                11.7541
 Frc consts  --     0.0000                 0.0000                 0.0000
 IR Inten    --     0.7055                 9.9865                 8.8401
 Raman Activ --     0.0000                 0.0000                 0.0000
 Depolar     --     0.0000                 0.0000                 0.0000
 Atom AN      X      Y      Z        X      Y      Z        X      Y      Z
   1   6     0.00  -0.00   0.25     0.00  -0.00  -0.21    -0.00   0.00   0.07
   2   6     0.00  -0.00   0.40     0.00  -0.00  -0.06    -0.00   0.00   0.08
   3   6     0.00  -0.00   0.24     0.00  -0.00   0.08    -0.00   0.00  -0.13
   4   6     0.00  -0.00   0.02     0.00  -0.00   0.03    -0.00   0.00   0.04
   5   6     0.00  -0.00  -0.07     0.00  -0.00  -0.31    -0.00   0.00  -0.17
   6   6     0.00  -0.00   0.00     0.00  -0.00  -0.41    -0.00   0.00  -0.25
   7   8     0.00  -0.00  -0.18     0.00  -0.00   0.33    -0.00   0.00   0.49
   8   1     0.00  -0.00  -0.03     0.00  -0.00   0.12    -0.00   0.00   0.11
   9   1     0.00  -0.00   0.17     0.00  -0.00   0.01     0.00   0.00   0.05
  10   8     0.00  -0.00   0.23     0.00  -0.00   0.35     0.00  -0.00  -0.49
  11   6    -0.00   0.00  -0.43    -0.00   0.00  -0.29     0.00  -0.00   0.07
  12   1    -0.07  -0.11  -0.14     0.01  -0.11  -0.15    -0.09   0.10   0.11
  13   1    -0.00   0.00  -0.23    -0.00   0.00  -0.09     0.00  -0.00  -0.06
  14   1     0.07   0.11  -0.14    -0.02   0.11  -0.15     0.09  -0.10   0.11
  15   1     0.00  -0.00  -0.04     0.00  -0.00  -0.18    -0.00   0.00  -0.11
  16   1    -0.00  -0.00  -0.07     0.00  -0.00  -0.13    -0.00   0.00  -0.06
  17   6     0.00   0.00   0.17     0.00   0.00   0.03    -0.00  -0.00   0.38
  18   8    -0.00   0.00  -0.47     0.00   0.00   0.46    -0.00  -0.00  -0.19
  19   1     0.00   0.00   0.18     0.00   0.00  -0.01    -0.00  -0.00   0.34
                      4                      5                      6
                        a                      a                      a 
 Frequencies --   157.9579               209.9604               227.2414
 Red. masses --    12.0475                 4.0987                12.4912
 Frc consts  --     0.0000                 0.0000                 0.0000
 IR Inten    --     5.3735                 1.9798                 2.2255
 Raman Activ --     0.0000                 0.0000                 0.0000
 Depolar     --     0.0000                 0.0000                 0.0000
 Atom AN      X      Y      Z        X      Y      Z        X      Y      Z
   1   6    -0.01   0.19  -0.00     0.00   0.00   0.01    -0.14  -0.20   0.00
   2   6    -0.00   0.20  -0.00     0.00   0.00   0.25    -0.19  -0.07   0.00
   3   6    -0.04   0.12   0.00     0.00   0.00   0.15    -0.15   0.03   0.00
   4   6    -0.10   0.11  -0.00    -0.00   0.00   0.07     0.02   0.04   0.00
   5   6    -0.10   0.13   0.00    -0.00   0.00   0.00     0.11  -0.11  -0.00
   6   6    -0.05   0.19   0.00    -0.00   0.00  -0.08     0.02  -0.21  -0.00
   7   8    -0.13   0.11  -0.00    -0.00  -0.00  -0.01     0.27   0.46  -0.00
   8   1    -0.03   0.03  -0.00    -0.00  -0.00  -0.01     0.00   0.20  -0.00
   9   1     0.01   0.06  -0.00     0.00   0.00   0.13    -0.07  -0.02   0.00
  10   8     0.08  -0.13   0.00     0.00  -0.00  -0.15    -0.09  -0.15  -0.00
  11   6     0.47  -0.15  -0.00     0.00  -0.00   0.03     0.36  -0.17  -0.00
  12   1     0.17  -0.00   0.00    -0.38   0.07   0.24     0.14  -0.01   0.00
  13   1     0.15  -0.13   0.00     0.00   0.00  -0.44     0.12  -0.15   0.00
  14   1     0.17  -0.00  -0.00     0.38  -0.07   0.24     0.14  -0.01  -0.00
  15   1    -0.02   0.07   0.00    -0.00   0.00  -0.08     0.03  -0.10  -0.00
  16   1    -0.04   0.04   0.00    -0.00   0.00  -0.02     0.06  -0.03  -0.00
  17   6    -0.18  -0.10  -0.00    -0.00  -0.00  -0.34    -0.07  -0.04  -0.00
  18   8    -0.01  -0.58   0.00     0.00  -0.00   0.17    -0.26   0.36   0.00
  19   1    -0.16  -0.02  -0.00    -0.00  -0.00  -0.32     0.06  -0.02  -0.00
                      7                      8                      9
                        a                      a                      a 
 Frequencies --   264.9518               319.2548               328.1572
 Red. masses --     7.4319                11.9705                10.4140
 Frc consts  --     0.0000                 0.0000                 0.0000
 IR Inten    --     0.0636                17.5120                 1.7768
 Raman Activ --     0.0000                 0.0000                 0.0000
 Depolar     --     0.0000                 0.0000                 0.0000
 Atom AN      X      Y      Z        X      Y      Z        X      Y      Z
   1   6     0.00   0.00   0.25     0.10   0.17   0.00     0.00   0.00  -0.39
   2   6     0.00  -0.00   0.43     0.08   0.13   0.00     0.00   0.00   0.14
   3   6     0.00  -0.00   0.13    -0.09  -0.11  -0.00    -0.00  -0.00   0.19
   4   6     0.00  -0.00   0.07    -0.07  -0.07  -0.00    -0.00  -0.00   0.31
   5   6    -0.00   0.00  -0.14    -0.07  -0.04  -0.00    -0.00  -0.00   0.49
   6   6    -0.00   0.00  -0.07     0.03   0.17   0.00     0.00   0.00  -0.41
   7   8    -0.00  -0.00   0.07     0.23   0.44   0.00     0.00   0.00  -0.28
   8   1     0.00  -0.00   0.03    -0.03   0.22  -0.00    -0.00   0.00  -0.12
   9   1     0.00  -0.00   0.15     0.04   0.04   0.00     0.00   0.00   0.07
  10   8    -0.00   0.00  -0.38    -0.04  -0.37  -0.00    -0.00  -0.00  -0.15
  11   6    -0.00   0.00  -0.04    -0.38  -0.33  -0.00    -0.00  -0.00  -0.00
  12   1     0.28   0.02  -0.15    -0.15  -0.14  -0.00     0.06   0.02  -0.02
  13   1    -0.00  -0.00   0.34    -0.13   0.00   0.00    -0.00  -0.00   0.07
  14   1    -0.28  -0.02  -0.15    -0.15  -0.14   0.00    -0.06  -0.02  -0.02
  15   1    -0.00   0.00  -0.11    -0.01   0.08   0.00    -0.00   0.00  -0.24
  16   1    -0.00   0.00  -0.11    -0.07  -0.01  -0.00    -0.00  -0.00   0.22
  17   6     0.00  -0.00  -0.27     0.09   0.11  -0.00     0.00   0.00   0.06
  18   8     0.00  -0.00   0.09     0.21  -0.12  -0.00     0.00  -0.00   0.05
  19   1    -0.00  -0.00  -0.32    -0.02   0.03  -0.00     0.00   0.00   0.21
                     10                     11                     12
                        a                      a                      a 
 Frequencies --   388.8908               435.7403               492.5342
 Red. masses --    13.0577                 9.8442                12.5770
 Frc consts  --     0.0000                 0.0000                 0.0000
 IR Inten    --     1.9899                 7.6711                10.8533
 Raman Activ --     0.0000                 0.0000                 0.0000
 Depolar     --     0.0000                 0.0000                 0.0000
 Atom AN      X      Y      Z        X      Y      Z        X      Y      Z
   1   6    -0.15   0.24  -0.00     0.00  -0.00  -0.10     0.03  -0.13   0.00
   2   6     0.05  -0.01   0.00    -0.00   0.00   0.35     0.04   0.04  -0.00
   3   6     0.07  -0.12  -0.00     0.00   0.00  -0.50     0.22   0.23  -0.00
   4   6     0.30  -0.12   0.00    -0.00   0.00  -0.50    -0.06   0.31   0.00
   5   6     0.15   0.16   0.00     0.00   0.00   0.26     0.08   0.12   0.00
   6   6     0.16   0.24  -0.00    -0.00  -0.00  -0.08    -0.01  -0.13  -0.00
   7   8     0.34  -0.24  -0.00    -0.00  -0.00   0.19    -0.31   0.10  -0.00
   8   1     0.10  -0.07   0.00    -0.00   0.00  -0.06    -0.02  -0.04   0.00
   9   1     0.08  -0.00   0.00    -0.00   0.00   0.36    -0.08   0.01  -0.00
  10   8     0.07  -0.09  -0.00     0.00  -0.00   0.17     0.54  -0.21  -0.00
  11   6    -0.08  -0.09  -0.00     0.00   0.00   0.00    -0.14  -0.18   0.00
  12   1    -0.04  -0.04  -0.00     0.01  -0.03  -0.02    -0.13  -0.14   0.00
  13   1    -0.03   0.01   0.00    -0.00   0.00   0.01    -0.08   0.16   0.00
  14   1    -0.04  -0.04   0.00    -0.01   0.03  -0.02    -0.13  -0.14  -0.00
  15   1     0.07   0.02  -0.00    -0.00  -0.00   0.02     0.01  -0.06  -0.00
  16   1    -0.03   0.04   0.00     0.00   0.00   0.29     0.12   0.04   0.00
  17   6    -0.41   0.06  -0.00     0.00  -0.00  -0.05    -0.07  -0.20   0.00
  18   8    -0.48   0.04   0.00    -0.00   0.00   0.03    -0.24   0.10   0.00
  19   1    -0.14   0.02  -0.00     0.00  -0.00  -0.03     0.02  -0.06  -0.00
                     13                     14                     15
                        a                      a                      a 
 Frequencies --   507.7189               529.5969               555.6954
 Red. masses --     1.9744                11.8148                10.5839
 Frc consts  --     0.0000                 0.0000                 0.0000
 IR Inten    --   218.0850                38.2481                 3.5278
 Raman Activ --     0.0000                 0.0000                 0.0000
 Depolar     --     0.0000                 0.0000                 0.0000
 Atom AN      X      Y      Z        X      Y      Z        X      Y      Z
   1   6     0.00   0.00  -0.04     0.08   0.01   0.00    -0.00  -0.00  -0.62
   2   6    -0.00   0.00   0.05    -0.16   0.36  -0.00    -0.00  -0.00   0.20
   3   6    -0.00  -0.00  -0.05    -0.28   0.18   0.00     0.00   0.00   0.41
   4   6     0.00  -0.00  -0.04     0.10   0.18   0.00     0.00   0.00  -0.24
   5   6     0.00  -0.00   0.07     0.33  -0.01  -0.00     0.00   0.00  -0.20
   6   6     0.00   0.00  -0.00     0.39   0.01   0.00    -0.00  -0.00   0.36
   7   8     0.00  -0.00  -0.23    -0.19  -0.24   0.00    -0.00   0.00   0.11
   8   1     0.00  -0.00   0.96     0.06  -0.19  -0.00    -0.00  -0.00  -0.00
   9   1    -0.00   0.00   0.01    -0.06   0.10  -0.00    -0.00  -0.00   0.11
  10   8    -0.00  -0.00  -0.03    -0.36  -0.13   0.00     0.00  -0.00  -0.16
  11   6     0.00  -0.00  -0.01    -0.07  -0.22  -0.00    -0.00  -0.00  -0.02
  12   1    -0.00   0.00  -0.00     0.00  -0.03   0.00     0.02   0.02  -0.01
  13   1     0.00  -0.00  -0.01    -0.01  -0.12  -0.00    -0.00   0.00   0.03
  14   1     0.00  -0.00  -0.00     0.00  -0.03  -0.00    -0.02  -0.02  -0.01
  15   1     0.00   0.00   0.03     0.12  -0.02  -0.00    -0.00  -0.00   0.30
  16   1     0.00  -0.00   0.06     0.14   0.00  -0.00     0.00   0.00  -0.01
  17   6     0.00   0.00   0.01     0.10  -0.07   0.00    -0.00   0.00  -0.04
  18   8     0.00  -0.00   0.00     0.06   0.06  -0.00    -0.00   0.00   0.03
  19   1     0.00   0.00   0.01     0.05  -0.02   0.00    -0.00   0.00   0.19
                     16                     17                     18
                        a                      a                      a 
 Frequencies --   614.0000               681.0733               755.6244
 Red. masses --    11.6232                11.7601                11.4392
 Frc consts  --     0.0000                 0.0000                 0.0000
 IR Inten    --    15.8074                 0.0559                55.5998
 Raman Activ --     0.0000                 0.0000                 0.0000
 Depolar     --     0.0000                 0.0000                 0.0000
 Atom AN      X      Y      Z        X      Y      Z        X      Y      Z
   1   6    -0.27  -0.10   0.00     0.00   0.00   0.27     0.23  -0.08  -0.00
   2   6    -0.24  -0.28  -0.00     0.00  -0.00  -0.26     0.14   0.08   0.00
   3   6    -0.01   0.08  -0.00     0.00  -0.00   0.55     0.03   0.00  -0.00
   4   6     0.22   0.20   0.00     0.00   0.00  -0.61     0.09   0.02   0.00
   5   6     0.08   0.48  -0.00     0.00   0.00   0.26    -0.16   0.43  -0.00
   6   6    -0.27  -0.09  -0.00    -0.00  -0.00  -0.24    -0.30   0.11  -0.00
   7   8     0.12  -0.08   0.00    -0.00   0.00   0.10     0.19  -0.06  -0.00
   8   1     0.08  -0.08  -0.00    -0.00   0.00   0.03     0.04  -0.01  -0.00
   9   1    -0.11  -0.08  -0.00     0.00  -0.00  -0.08     0.03   0.02   0.00
  10   8    -0.04  -0.09   0.00    -0.00  -0.00  -0.08    -0.24   0.00   0.00
  11   6    -0.02  -0.17  -0.00    -0.00  -0.00  -0.01    -0.04  -0.08  -0.00
  12   1    -0.02  -0.05   0.00     0.00   0.01   0.00     0.02   0.01  -0.00
  13   1    -0.01  -0.03  -0.00    -0.00  -0.00   0.00     0.00  -0.10  -0.00
  14   1    -0.02  -0.05  -0.00    -0.00  -0.01   0.00     0.02   0.01   0.00
  15   1    -0.01  -0.14  -0.00     0.00  -0.00  -0.04    -0.11   0.09   0.00
  16   1     0.08   0.14  -0.00     0.00   0.00   0.13    -0.08   0.12   0.00
  17   6     0.06   0.30  -0.00     0.00  -0.00   0.03     0.20  -0.56   0.00
  18   8     0.32  -0.13  -0.00    -0.00   0.00  -0.01    -0.13   0.14  -0.00
  19   1    -0.01   0.08  -0.00     0.00  -0.00  -0.06     0.14  -0.16  -0.00
                     19                     20                     21
                        a                      a                      a 
 Frequencies --   811.2138               825.0850               849.6180
 Red. masses --    11.8573                 4.0364                 3.4198
 Frc consts  --     0.0000                 0.0000                 0.0000
 IR Inten    --   100.1365                52.2677                 0.7740
 Raman Activ --     0.0000                 0.0000                 0.0000
 Depolar     --     0.0000                 0.0000                 0.0000
 Atom AN      X      Y      Z        X      Y      Z        X      Y      Z
   1   6    -0.04  -0.06  -0.00    -0.00  -0.00   0.07     0.00  -0.00  -0.07
   2   6    -0.25   0.49   0.00    -0.00   0.00  -0.33     0.00  -0.00  -0.30
   3   6    -0.15   0.23   0.00    -0.00   0.00   0.10    -0.00  -0.00   0.01
   4   6     0.02  -0.11  -0.00    -0.00  -0.00   0.22    -0.00  -0.00  -0.05
   5   6    -0.17  -0.20   0.00    -0.00  -0.00  -0.22     0.00   0.00   0.23
   6   6    -0.25  -0.13   0.00    -0.00  -0.00  -0.16     0.00   0.00   0.27
   7   8     0.41  -0.26   0.00     0.00  -0.00  -0.06    -0.00   0.00   0.01
   8   1     0.08  -0.04   0.00     0.00  -0.00  -0.00    -0.00   0.00   0.03
   9   1    -0.21   0.14  -0.00    -0.00   0.00   0.64    -0.00   0.00   0.57
  10   8     0.28  -0.04  -0.00     0.00  -0.00  -0.04    -0.00  -0.00  -0.01
  11   6     0.06   0.06   0.00     0.00   0.00  -0.00     0.00   0.00   0.00
  12   1    -0.05  -0.05   0.00     0.01  -0.01  -0.01     0.00  -0.01  -0.00
  13   1    -0.01   0.16   0.00    -0.00   0.00   0.02    -0.00   0.00   0.02
  14   1    -0.05  -0.05  -0.00    -0.01   0.01  -0.01    -0.00   0.01  -0.00
  15   1    -0.11   0.02  -0.00    -0.00   0.00   0.38     0.00  -0.00  -0.43
  16   1    -0.09  -0.06  -0.00    -0.00  -0.00   0.37     0.00  -0.00  -0.52
  17   6     0.03   0.02  -0.00     0.00   0.00   0.14     0.00  -0.00   0.02
  18   8     0.06   0.00   0.00     0.00  -0.00  -0.05    -0.00   0.00  -0.01
  19   1     0.01   0.00   0.00    -0.00   0.00  -0.20     0.00  -0.00   0.01
                     22                     23                     24
                        a                      a                      a 
 Frequencies --   912.4226               919.8333               951.4741
 Red. masses --     4.1573                 5.6269                10.0074
 Frc consts  --     0.0000                 0.0000                 0.0000
 IR Inten    --     0.8392                 0.4241                17.4385
 Raman Activ --     0.0000                 0.0000                 0.0000
 Depolar     --     0.0000                 0.0000                 0.0000
 Atom AN      X      Y      Z        X      Y      Z        X      Y      Z
   1   6    -0.00   0.00   0.14     0.00  -0.00  -0.25    -0.20   0.00  -0.00
   2   6     0.00   0.00  -0.10    -0.00   0.00   0.06    -0.35  -0.20   0.00
   3   6    -0.00  -0.00   0.06    -0.00   0.00   0.04    -0.23  -0.09  -0.00
   4   6     0.00  -0.00   0.00    -0.00   0.00  -0.04     0.02  -0.14   0.00
   5   6    -0.00   0.00  -0.30     0.00  -0.00  -0.10    -0.01   0.14  -0.00
   6   6     0.00   0.00   0.28    -0.00  -0.00   0.19     0.31   0.36  -0.00
   7   8    -0.00   0.00  -0.01     0.00  -0.00  -0.00    -0.09   0.03  -0.00
   8   1     0.00  -0.00   0.01     0.00  -0.00   0.00    -0.06   0.06   0.00
   9   1     0.00   0.00   0.07     0.00  -0.00  -0.14    -0.16  -0.06  -0.00
  10   8     0.00  -0.00  -0.00    -0.00   0.00  -0.00     0.21  -0.14  -0.00
  11   6     0.00   0.00   0.00     0.00  -0.00  -0.00     0.12   0.21   0.00
  12   1    -0.00  -0.00  -0.00    -0.00   0.00   0.00    -0.05  -0.03   0.00
  13   1    -0.00   0.00   0.00     0.00   0.00  -0.00    -0.00   0.22   0.00
  14   1     0.00   0.00  -0.00     0.00  -0.00   0.00    -0.05  -0.03  -0.00
  15   1     0.00  -0.00  -0.53     0.00  -0.00  -0.38     0.11   0.06   0.00
  16   1    -0.00   0.00   0.56     0.00  -0.00   0.23    -0.28   0.04   0.00
  17   6    -0.00  -0.00  -0.28     0.00   0.00   0.53     0.17  -0.27   0.00
  18   8     0.00   0.00   0.08    -0.00  -0.00  -0.14     0.11   0.05  -0.00
  19   1     0.00   0.00   0.34    -0.00  -0.00  -0.61     0.15  -0.08  -0.00
                     25                     26                     27
                        a                      a                      a 
 Frequencies --  1035.0247              1100.1218              1115.4870
 Red. masses --    10.7207                 6.3997                 3.6992
 Frc consts  --     0.0000                 0.0000                 0.0000
 IR Inten    --    56.4766                70.3729                 2.3412
 Raman Activ --     0.0000                 0.0000                 0.0000
 Depolar     --     0.0000                 0.0000                 0.0000
 Atom AN      X      Y      Z        X      Y      Z        X      Y      Z
   1   6    -0.06   0.01  -0.00    -0.06  -0.05   0.00    -0.00   0.00   0.00
   2   6    -0.11  -0.23   0.00     0.03   0.23  -0.00    -0.00   0.00  -0.00
   3   6     0.18   0.26   0.00    -0.03  -0.07   0.00    -0.00  -0.00   0.00
   4   6    -0.03   0.07  -0.00    -0.01  -0.26   0.00     0.00   0.00  -0.00
   5   6    -0.12  -0.23   0.00     0.06   0.23  -0.00    -0.00  -0.00  -0.00
   6   6     0.13   0.20   0.00     0.03  -0.08  -0.00    -0.00  -0.00   0.00
   7   8     0.08  -0.01   0.00    -0.08  -0.14  -0.00    -0.00   0.00  -0.00
   8   1     0.09  -0.10  -0.00    -0.39   0.44   0.00     0.00  -0.00   0.00
   9   1    -0.21  -0.06  -0.00     0.02   0.06   0.00     0.00   0.00   0.02
  10   8     0.04   0.48   0.00     0.13   0.35   0.00     0.00  -0.00   0.22
  11   6    -0.08  -0.50  -0.00    -0.05  -0.26  -0.00    -0.00   0.00  -0.42
  12   1     0.02  -0.04   0.01     0.02  -0.01   0.00     0.02   0.58   0.17
  13   1    -0.01  -0.18  -0.00    -0.00  -0.08   0.00    -0.00  -0.00   0.23
  14   1     0.02  -0.04  -0.01     0.02  -0.01  -0.00    -0.02  -0.58   0.17
  15   1    -0.05   0.20  -0.00     0.21  -0.38   0.00    -0.00   0.00   0.00
  16   1    -0.23  -0.07  -0.00    -0.11   0.06   0.00    -0.00  -0.00   0.00
  17   6     0.02  -0.05   0.00     0.00   0.01   0.00     0.00  -0.00   0.00
  18   8     0.02   0.01  -0.00     0.02  -0.00  -0.00     0.00   0.00  -0.00
  19   1     0.03  -0.02   0.00     0.01   0.00  -0.00     0.00  -0.00  -0.00
                     28                     29                     30
                        a                      a                      a 
 Frequencies --  1128.1491              1146.5584              1158.4719
 Red. masses --     5.4362                 5.9368                 5.5909
 Frc consts  --     0.0000                 0.0000                 0.0000
 IR Inten    --   578.0006               126.5363               108.3760
 Raman Activ --     0.0000                 0.0000                 0.0000
 Depolar     --     0.0000                 0.0000                 0.0000
 Atom AN      X      Y      Z        X      Y      Z        X      Y      Z
   1   6    -0.14   0.06  -0.00    -0.06   0.09  -0.00    -0.13   0.09  -0.00
   2   6    -0.01   0.17  -0.00    -0.05   0.00  -0.00    -0.22   0.02  -0.00
   3   6    -0.13  -0.19   0.00    -0.22  -0.18  -0.00    -0.16  -0.18   0.00
   4   6     0.19  -0.05  -0.00     0.11  -0.05   0.00     0.03   0.00   0.00
   5   6    -0.08  -0.00   0.00     0.04  -0.02   0.00     0.04  -0.01   0.00
   6   6    -0.05  -0.14   0.00    -0.10  -0.03   0.00    -0.04   0.05   0.00
   7   8    -0.14   0.28   0.00    -0.07   0.06   0.00     0.01  -0.04  -0.00
   8   1     0.36  -0.43  -0.00     0.03  -0.04  -0.00    -0.08   0.09   0.00
   9   1     0.30   0.05   0.00     0.33   0.00   0.00     0.14   0.01   0.00
  10   8     0.20   0.11  -0.00    -0.04   0.34   0.00     0.36   0.05  -0.00
  11   6    -0.11  -0.06   0.00     0.28  -0.26  -0.00    -0.27  -0.00   0.00
  12   1     0.07   0.07  -0.01    -0.15  -0.21   0.03     0.16   0.18  -0.03
  13   1    -0.00  -0.13  -0.00    -0.03   0.46   0.00     0.01  -0.37  -0.00
  14   1     0.07   0.07   0.01    -0.15  -0.21  -0.03     0.16   0.18   0.03
  15   1     0.12  -0.28   0.00    -0.13   0.17  -0.00    -0.17   0.30  -0.00
  16   1    -0.34  -0.01  -0.00     0.31  -0.00  -0.00     0.46   0.00   0.00
  17   6     0.06  -0.05   0.00     0.04  -0.06   0.00     0.04  -0.10   0.00
  18   8     0.02   0.00  -0.00     0.01   0.01   0.00     0.05   0.02  -0.00
  19   1     0.05  -0.02  -0.00     0.05  -0.02   0.00     0.09  -0.03  -0.00
                     31                     32                     33
                        a                      a                      a 
 Frequencies --  1210.9345              1244.8416              1292.3530
 Red. masses --     7.6575                 3.8879                11.4727
 Frc consts  --     0.0000                 0.0000                 0.0000
 IR Inten    --    55.6289                66.2372              1203.6826
 Raman Activ --     0.0000                 0.0000                 0.0000
 Depolar     --     0.0000                 0.0000                 0.0000
 Atom AN      X      Y      Z        X      Y      Z        X      Y      Z
   1   6     0.36  -0.18   0.00     0.04  -0.27   0.00     0.45  -0.11   0.00
   2   6    -0.01   0.08  -0.00    -0.04  -0.01  -0.00    -0.21  -0.11  -0.00
   3   6    -0.13  -0.31  -0.00    -0.08   0.16  -0.00    -0.23  -0.24  -0.00
   4   6     0.25  -0.21   0.00     0.16   0.13   0.00    -0.36   0.35  -0.00
   5   6     0.10   0.17  -0.00     0.16   0.04  -0.00    -0.27   0.15  -0.00
   6   6    -0.01  -0.09   0.00     0.05  -0.18   0.00     0.25  -0.06   0.00
   7   8    -0.21   0.17   0.00    -0.05  -0.08  -0.00     0.25  -0.12   0.00
   8   1     0.04  -0.08  -0.00    -0.17   0.18   0.00     0.06  -0.04  -0.00
   9   1    -0.53   0.01  -0.00     0.46   0.00   0.00     0.14  -0.04   0.00
  10   8     0.08   0.11   0.00     0.02  -0.07  -0.00     0.13   0.10   0.00
  11   6     0.02  -0.03  -0.00    -0.04   0.02   0.00    -0.00  -0.07  -0.00
  12   1    -0.01   0.02   0.02     0.03   0.01  -0.02     0.03   0.02  -0.00
  13   1     0.01  -0.02   0.00    -0.01   0.01  -0.00    -0.01   0.07   0.00
  14   1    -0.00   0.02  -0.02     0.03   0.01   0.02     0.03   0.02   0.00
  15   1    -0.16   0.27  -0.00    -0.23   0.40  -0.00     0.13  -0.10   0.00
  16   1    -0.07   0.04  -0.00    -0.50   0.00   0.00    -0.00   0.05  -0.00
  17   6    -0.08   0.16  -0.00    -0.06   0.13  -0.00    -0.10   0.09  -0.00
  18   8    -0.07  -0.01   0.00    -0.03  -0.04   0.00    -0.03   0.02   0.00
  19   1    -0.20   0.06   0.00     0.03   0.02  -0.00    -0.14   0.03   0.00
                     34                     35                     36
                        a                      a                      a 
 Frequencies --  1353.6638              1386.5097              1392.8764
 Red. masses --     8.0764                 5.3647                 4.1357
 Frc consts  --     0.0000                 0.0000                 0.0000
 IR Inten    --   102.7983                14.1879                12.1454
 Raman Activ --     0.0000                 0.0000                 0.0000
 Depolar     --     0.0000                 0.0000                 0.0000
 Atom AN      X      Y      Z        X      Y      Z        X      Y      Z
   1   6    -0.05  -0.45   0.00     0.01  -0.17   0.00    -0.01   0.21  -0.00
   2   6     0.18   0.09   0.00     0.12  -0.10   0.00    -0.03   0.04  -0.00
   3   6    -0.06   0.09   0.00    -0.19   0.28  -0.00     0.14  -0.17  -0.00
   4   6    -0.31  -0.26  -0.00    -0.09  -0.21  -0.00     0.13   0.19   0.00
   5   6     0.06   0.16  -0.00     0.17  -0.01  -0.00    -0.09  -0.04   0.00
   6   6     0.07   0.22  -0.00    -0.12   0.21  -0.00     0.03  -0.15   0.00
   7   8     0.06   0.06   0.00    -0.00   0.02   0.00    -0.02  -0.03  -0.00
   8   1     0.15  -0.17  -0.00     0.05  -0.05  -0.00    -0.07   0.08   0.00
   9   1     0.04   0.02  -0.00     0.09  -0.03   0.00    -0.17   0.01  -0.00
  10   8     0.03   0.04  -0.00     0.05  -0.07  -0.00    -0.08  -0.10  -0.00
  11   6    -0.01  -0.03   0.00    -0.08  -0.21  -0.00    -0.02  -0.23  -0.00
  12   1     0.01   0.02   0.00     0.15   0.31   0.07     0.13   0.36   0.11
  13   1    -0.00   0.01  -0.00    -0.08   0.34  -0.00    -0.09   0.42  -0.00
  14   1     0.01   0.02  -0.00     0.15   0.31  -0.07     0.13   0.36  -0.11
  15   1     0.02   0.06  -0.00     0.03  -0.05   0.00    -0.02   0.01   0.00
  16   1     0.13   0.05   0.00     0.05  -0.00   0.00    -0.06  -0.01   0.00
  17   6    -0.17   0.23  -0.00     0.07  -0.07   0.00    -0.05   0.06  -0.00
  18   8    -0.07  -0.15   0.00     0.06   0.10  -0.00    -0.06  -0.09   0.00
  19   1     0.54  -0.01  -0.00    -0.47   0.03   0.00     0.44  -0.03  -0.00
                     37                     38                     39
                        a                      a                      a 
 Frequencies --  1436.7030              1453.4509              1468.0204
 Red. masses --     9.9924                 1.5371                 1.9697
 Frc consts  --     0.0000                 0.0000                 0.0000
 IR Inten    --    49.6339                10.0227                69.1071
 Raman Activ --     0.0000                 0.0000                 0.0000
 Depolar     --     0.0000                 0.0000                 0.0000
 Atom AN      X      Y      Z        X      Y      Z        X      Y      Z
   1   6    -0.40  -0.16  -0.00     0.00   0.00  -0.00     0.02   0.02  -0.00
   2   6    -0.06   0.27  -0.00    -0.00  -0.00  -0.00     0.05  -0.03   0.00
   3   6     0.43  -0.22   0.00    -0.00   0.00   0.00    -0.12  -0.00  -0.00
   4   6    -0.25  -0.05  -0.00     0.00  -0.00  -0.00    -0.04   0.06  -0.00
   5   6    -0.11   0.21  -0.00    -0.00  -0.00  -0.00     0.08  -0.03   0.00
   6   6     0.31  -0.19   0.00    -0.00   0.00   0.00    -0.06   0.02  -0.00
   7   8     0.06   0.03   0.00    -0.00   0.00   0.00     0.02  -0.03  -0.00
   8   1     0.07  -0.07  -0.00    -0.00  -0.00  -0.00    -0.01   0.01  -0.00
   9   1     0.02   0.08   0.00    -0.00  -0.00   0.02     0.04  -0.01   0.00
  10   8    -0.11  -0.01   0.00     0.00   0.00   0.03     0.08  -0.01   0.00
  11   6     0.05  -0.05   0.00    -0.00   0.00   0.22     0.20  -0.04   0.00
  12   1    -0.05   0.07   0.06     0.40   0.22  -0.09    -0.46   0.26   0.36
  13   1    -0.00   0.05  -0.00     0.00   0.00  -0.71     0.07  -0.30  -0.00
  14   1    -0.05   0.07  -0.06    -0.40  -0.22  -0.09    -0.46   0.26  -0.36
  15   1    -0.07   0.24  -0.00     0.00  -0.00   0.00    -0.00  -0.02  -0.00
  16   1     0.02   0.07  -0.00     0.00  -0.00  -0.00    -0.04  -0.01  -0.00
  17   6     0.06  -0.08   0.00    -0.00   0.00  -0.00    -0.01  -0.01   0.00
  18   8     0.12   0.08  -0.00    -0.00  -0.00   0.00     0.00   0.00  -0.00
  19   1    -0.30   0.01   0.00     0.00   0.00   0.00     0.02  -0.00   0.00
                     40                     41                     42
                        a                      a                      a 
 Frequencies --  1484.8055              1554.3296              1571.6918
 Red. masses --    10.7232                11.6223                11.5688
 Frc consts  --     0.0000                 0.0000                 0.0000
 IR Inten    --   551.9408               273.3355               189.5026
 Raman Activ --     0.0000                 0.0000                 0.0000
 Depolar     --     0.0000                 0.0000                 0.0000
 Atom AN      X      Y      Z        X      Y      Z        X      Y      Z
   1   6     0.23  -0.12   0.00    -0.03  -0.45   0.00     0.30   0.17   0.00
   2   6    -0.33  -0.01  -0.00    -0.09   0.20  -0.00    -0.53   0.01  -0.00
   3   6     0.22   0.29   0.00     0.19  -0.32   0.00     0.37  -0.04   0.00
   4   6     0.37  -0.30   0.00     0.25   0.33   0.00    -0.27  -0.21  -0.00
   5   6    -0.48   0.04  -0.00    -0.01  -0.26   0.00     0.45   0.02   0.00
   6   6     0.18   0.01  -0.00    -0.20   0.49  -0.00    -0.24   0.04  -0.00
   7   8    -0.13   0.09  -0.00    -0.05  -0.01  -0.00    -0.02   0.06   0.00
   8   1    -0.02   0.02  -0.00    -0.07   0.07   0.00     0.05  -0.07  -0.00
   9   1     0.22   0.00   0.00     0.05   0.05   0.00     0.14   0.01   0.00
  10   8    -0.07  -0.09  -0.00    -0.05  -0.00   0.00    -0.05  -0.01   0.00
  11   6     0.01  -0.00  -0.00     0.02   0.00  -0.00     0.01  -0.01  -0.00
  12   1    -0.06   0.06   0.06    -0.00  -0.00   0.00    -0.00   0.01   0.01
  13   1     0.00  -0.03   0.00     0.00   0.02   0.00    -0.00   0.01   0.00
  14   1    -0.06   0.06  -0.06    -0.00  -0.00  -0.00    -0.00   0.01  -0.01
  15   1     0.09  -0.05   0.00     0.08  -0.12   0.00    -0.03  -0.06   0.00
  16   1     0.24   0.01  -0.00     0.02  -0.07   0.00    -0.10  -0.00  -0.00
  17   6     0.03   0.11  -0.00    -0.15  -0.02   0.00    -0.13  -0.04   0.00
  18   8    -0.09  -0.04   0.00     0.13   0.05  -0.00     0.07   0.03  -0.00
  19   1    -0.01   0.02  -0.00    -0.07  -0.01   0.00     0.07  -0.01   0.00
                     43                     44                     45
                        a                      a                      a 
 Frequencies --  1664.9244              2763.3819              2960.0646
 Red. masses --    13.2799                 1.6710                 1.9612
 Frc consts  --     0.0000                 0.0000                 0.0000
 IR Inten    --   784.2492               267.1443                37.3926
 Raman Activ --     0.0000                 0.0000                 0.0000
 Depolar     --     0.0000                 0.0000                 0.0000
 Atom AN      X      Y      Z        X      Y      Z        X      Y      Z
   1   6     0.04   0.06   0.00    -0.00  -0.02   0.00    -0.00   0.00   0.00
   2   6     0.11  -0.04   0.00    -0.00   0.00  -0.00     0.00   0.00  -0.00
   3   6    -0.08   0.12  -0.00    -0.00  -0.00  -0.00     0.00   0.00  -0.00
   4   6     0.08  -0.07   0.00    -0.00   0.00  -0.00     0.00  -0.00   0.00
   5   6    -0.12   0.04  -0.00     0.00  -0.00  -0.00     0.00   0.00   0.00
   6   6     0.07  -0.13   0.00     0.00   0.00   0.00    -0.00   0.00   0.00
   7   8    -0.03   0.02   0.00     0.00  -0.00  -0.00     0.00  -0.00  -0.00
   8   1     0.00  -0.01  -0.00     0.00   0.00   0.00    -0.00   0.00   0.00
   9   1    -0.01  -0.01  -0.00     0.01  -0.00   0.00    -0.00  -0.00  -0.00
  10   8    -0.00  -0.01  -0.00     0.00   0.00  -0.00    -0.00  -0.00   0.01
  11   6    -0.00   0.00  -0.00    -0.00   0.00   0.00     0.00  -0.00   0.29
  12   1     0.00  -0.00  -0.00     0.00  -0.00   0.00    -0.30   0.27  -0.54
  13   1    -0.00  -0.00   0.00     0.00   0.00   0.00    -0.00  -0.00   0.05
  14   1     0.00  -0.00   0.00     0.00  -0.00  -0.00     0.30  -0.27  -0.54
  15   1    -0.01   0.02  -0.00     0.00   0.00  -0.00    -0.00   0.00  -0.00
  16   1     0.02   0.01  -0.00     0.00   0.00  -0.00    -0.00  -0.00  -0.00
  17   6    -0.71  -0.25   0.00    -0.00  -0.24   0.00     0.00   0.00  -0.00
  18   8     0.53   0.23  -0.00    -0.02  -0.02   0.00    -0.00  -0.00   0.00
  19   1     0.06  -0.05   0.00     0.10   0.96  -0.00    -0.00  -0.00   0.00
                     46                     47                     48
                        a                      a                      a 
 Frequencies --  2970.3847              3042.7407              3105.5991
 Red. masses --     1.4349                 1.7174                 1.8078
 Frc consts  --     0.0000                 0.0000                 0.0000
 IR Inten    --    37.6926                 9.5873                11.8455
 Raman Activ --     0.0000                 0.0000                 0.0000
 Depolar     --     0.0000                 0.0000                 0.0000
 Atom AN      X      Y      Z        X      Y      Z        X      Y      Z
   1   6    -0.00   0.00  -0.00    -0.00  -0.00   0.00    -0.01   0.00  -0.00
   2   6     0.00   0.00  -0.00    -0.00   0.00  -0.00     0.00  -0.05   0.00
   3   6     0.00   0.00   0.00    -0.00  -0.00   0.00    -0.00  -0.00  -0.00
   4   6    -0.00  -0.00  -0.00     0.00  -0.00   0.00    -0.00   0.00   0.00
   5   6     0.00   0.00  -0.00     0.00   0.00  -0.00    -0.00   0.07  -0.00
   6   6    -0.00   0.00  -0.00     0.00   0.00   0.00    -0.22  -0.12  -0.00
   7   8     0.00  -0.00   0.00    -0.00   0.00   0.00    -0.00  -0.00  -0.00
   8   1    -0.00   0.00  -0.00    -0.00  -0.00  -0.00     0.00   0.00   0.00
   9   1    -0.00  -0.01   0.00    -0.00  -0.01   0.00    -0.00   0.17  -0.00
  10   8     0.00  -0.02  -0.00     0.01   0.01   0.00     0.00   0.00  -0.00
  11   6     0.15  -0.12  -0.00     0.25   0.04   0.00     0.00  -0.00  -0.00
  12   1    -0.27   0.25  -0.58     0.03  -0.00   0.00    -0.00   0.00  -0.00
  13   1     0.02  -0.01  -0.00    -0.95  -0.18  -0.00    -0.00  -0.00  -0.00
  14   1    -0.27   0.25   0.58     0.03  -0.00  -0.00    -0.00   0.00   0.00
  15   1    -0.00  -0.00  -0.00    -0.00  -0.00   0.00     0.79   0.44   0.00
  16   1     0.00   0.00  -0.00     0.00  -0.00   0.00     0.00  -0.29   0.00
  17   6     0.00  -0.00  -0.00    -0.00  -0.00   0.00    -0.00  -0.00   0.00
  18   8    -0.00  -0.00  -0.00     0.00   0.00   0.00     0.00   0.00  -0.00
  19   1    -0.00   0.00  -0.00    -0.00   0.00   0.00    -0.00  -0.00   0.00
                     49                     50                     51
                        a                      a                      a 
 Frequencies --  3108.2091              3121.1512              3385.2840
 Red. masses --     1.8256                 1.8700                 1.8595
 Frc consts  --     0.0000                 0.0000                 0.0000
 IR Inten    --    18.0151                20.4773               320.8859
 Raman Activ --     0.0000                 0.0000                 0.0000
 Depolar     --     0.0000                 0.0000                 0.0000
 Atom AN      X      Y      Z        X      Y      Z        X      Y      Z
   1   6     0.01  -0.01   0.00     0.00  -0.00   0.00     0.00  -0.00   0.00
   2   6     0.01  -0.27   0.00     0.00  -0.01   0.00    -0.00   0.00  -0.00
   3   6    -0.01  -0.00  -0.00     0.00  -0.00   0.00     0.00  -0.00   0.00
   4   6     0.00   0.00  -0.00    -0.01   0.01  -0.00    -0.01   0.00  -0.00
   5   6     0.00  -0.02   0.00    -0.01   0.26  -0.00     0.00  -0.00  -0.00
   6   6     0.04   0.02   0.00     0.08   0.04   0.00    -0.00   0.00   0.00
   7   8     0.00  -0.00  -0.00    -0.00  -0.00  -0.00    -0.18  -0.15  -0.00
   8   1     0.00   0.00   0.00     0.01   0.01   0.00     0.77   0.60   0.00
   9   1    -0.01   0.95  -0.00    -0.00   0.02  -0.00     0.00  -0.00   0.00
  10   8    -0.00  -0.00  -0.00     0.00   0.00   0.00    -0.00   0.00   0.00
  11   6     0.00  -0.00  -0.00    -0.00  -0.00  -0.00    -0.00  -0.00  -0.00
  12   1    -0.00   0.00  -0.01    -0.00   0.00  -0.00     0.00  -0.00  -0.00
  13   1    -0.01  -0.00  -0.00     0.00   0.00   0.00    -0.00  -0.00   0.00
  14   1    -0.00   0.00   0.01    -0.00   0.00   0.00     0.00  -0.00   0.00
  15   1    -0.14  -0.08  -0.00    -0.26  -0.14  -0.00     0.00   0.00   0.00
  16   1    -0.00   0.08  -0.00     0.01  -0.91   0.00     0.00   0.01  -0.00
  17   6     0.00  -0.00  -0.00     0.00   0.00  -0.00    -0.00   0.00   0.00
  18   8    -0.00  -0.00   0.00    -0.00  -0.00   0.00     0.00   0.00  -0.00
  19   1    -0.00   0.00  -0.00    -0.00   0.00  -0.00    -0.00  -0.00   0.00
