19
 energy: -33.392570958260 gnorm: 0.000479456280 xtb: 6.4.1 (afa7bdf)
C         1.41621130733562   -0.18953258213106    0.00006850458290
C         0.19933002371134   -0.88722193443964    0.00005571487336
C        -0.99291874566283   -0.19755737739599   -0.00001186297842
C        -0.98533205983980    1.21703573081611   -0.00001620209887
C         0.22494896161091    1.90118259688817   -0.00001321766691
C         1.41499220927400    1.20669112333095    0.00000420354118
O        -2.13813490733748    1.90697629743763   -0.00003768307737
H        -2.89282723772219    1.29203080188444   -0.00013612037917
H         0.21870124973727   -1.96506225598847    0.00010652245533
O        -2.24144550366919   -0.75600933220520   -0.00003206364567
C        -2.34995365521762   -2.16715060291144   -0.00036452757265
H        -1.89218546811661   -2.59553115764798    0.89406475742359
H        -3.41785308193330   -2.37144376868680   -0.00053951535439
H        -1.89195742667127   -2.59510701479931   -0.89487937356475
H         2.36184304279991    1.72323609397013    0.00002339935965
H         0.20159840833927    2.97838020712777   -0.00003386690896
C         2.66556521480946   -0.92323603920554    0.00016769104197
O         3.78138697234184   -0.43420137805736   -0.00000798454410
H         2.55227613820559   -2.02376369304982    0.00020028712458
