      -----------------------------------------------------------      
     |                   =====================                   |     
     |                           x T B                           |     
     |                   =====================                   |     
     |                         S. Grimme                         |     
     |          Mulliken Center for Theoretical Chemistry        |     
     |                    University of Bonn                     |     
      -----------------------------------------------------------      

   * xtb version 6.4.1 (afa7bdf) compiled by 'ehlert@majestix' on 2021-06-10

   xtb is free software: you can redistribute it and/or modify it under
   the terms of the GNU Lesser General Public License as published by
   the Free Software Foundation, either version 3 of the License, or
   (at your option) any later version.
   
   xtb is distributed in the hope that it will be useful,
   but WITHOUT ANY WARRANTY; without even the implied warranty of
   MERCHANTABILITY or FITNESS FOR A PARTICULAR PURPOSE.  See the
   GNU Lesser General Public License for more details.
   
   Cite this work as:
   * C. Bannwarth, E. Caldeweyher, S. Ehlert, A. Hansen, P. Pracht,
     J. Seibert, S. Spicher, S. Grimme, WIREs Comput. Mol. Sci., 2020, 11,
     e01493. DOI: 10.1002/wcms.1493
   
   for GFN2-xTB:
   * C. Bannwarth, S. Ehlert and S. Grimme., J. Chem. Theory Comput., 2019,
     15, 1652-1671. DOI: 10.1021/acs.jctc.8b01176
   for GFN1-xTB:
   * S. Grimme, C. Bannwarth, P. Shushkov, J. Chem. Theory Comput., 2017,
     13, 1989-2009. DOI: 10.1021/acs.jctc.7b00118
   for GFN0-xTB:
   * P. Pracht, E. Caldeweyher, S. Ehlert, S. Grimme, ChemRxiv, 2019, preprint.
     DOI: 10.26434/chemrxiv.8326202.v1
   for GFN-FF:
   * S. Spicher and S. Grimme, Angew. Chem. Int. Ed., 2020, 59, 15665-15673.
     DOI: 10.1002/anie.202004239
   
   for DFT-D4:
   * E. Caldeweyher, C. Bannwarth and S. Grimme, J. Chem. Phys., 2017,
     147, 034112. DOI: 10.1063/1.4993215
   * E. Caldeweyher, S. Ehlert, A. Hansen, H. Neugebauer, S. Spicher,
     C. Bannwarth and S. Grimme, J. Chem. Phys., 2019, 150, 154122.
     DOI: 10.1063/1.5090222
   * E. Caldeweyher, J.-M. Mewes, S. Ehlert and S. Grimme, Phys. Chem. Chem. Phys.
     2020, 22, 8499-8512. DOI: 10.1039/D0CP00502A
   
   for sTDA-xTB:
   * S. Grimme and C. Bannwarth, J. Chem. Phys., 2016, 145, 054103.
     DOI: 10.1063/1.4959605
   
   in the mass-spec context:
   * V. Asgeirsson, C. Bauer and S. Grimme, Chem. Sci., 2017, 8, 4879.
     DOI: 10.1039/c7sc00601b
   * J. Koopman and S. Grimme, ACS Omega 2019, 4, 12, 15120-15133.
     DOI: 10.1021/acsomega.9b02011
   
   for metadynamics refer to:
   * S. Grimme, J. Chem. Theory Comput., 2019, 155, 2847-2862
     DOI: 10.1021/acs.jctc.9b00143
   
   for SPH calculations refer to:
   * S. Spicher and S. Grimme, J. Chem. Theory Comput., 2021, 17, 1701-1714
     DOI: 10.1021/acs.jctc.0c01306
   
   with help from (in alphabetical order)
   P. Atkinson, C. Bannwarth, F. Bohle, G. Brandenburg, E. Caldeweyher
   M. Checinski, S. Dohm, S. Ehlert, S. Ehrlich, I. Gerasimov, J. Koopman
   C. Lavigne, S. Lehtola, F. März, M. Müller, F. Musil, H. Neugebauer
   J. Pisarek, C. Plett, P. Pracht, J. Seibert, P. Shushkov, S. Spicher
   M. Stahn, M. Steiner, T. Strunk, J. Stückrath, T. Rose, and J. Unsleber
   
 * started run on 2021/11/15 at 09:23:07.277     

           -------------------------------------------------
          |                Calculation Setup                |
           -------------------------------------------------

          program call               : xtb 02_2-methoxy-4-formylphenol.xyz --gfn2 --chrg 0 --uhf 0 --alpb water -P 1
          coordinate file            : 02_2-methoxy-4-formylphenol.xyz
          omp threads                :                     1
          number of atoms            :                    19
          number of electrons        :                    58
          charge                     :                     0
          spin                       :                   0.0
          first test random number   :      0.23020897785563

   ID    Z sym.   atoms
    1    6 C      1-6, 11, 17
    2    8 O      7, 10, 18
    3    1 H      8, 9, 12-16, 19

           -------------------------------------------------
          |                 G F N 2 - x T B                 |
           -------------------------------------------------

        Reference                      10.1021/acs.jctc.8b01176
      * Hamiltonian:
        H0-scaling (s, p, d)           1.850000    2.230000    2.230000
        zeta-weighting                 0.500000
      * Dispersion:
        s8                             2.700000
        a1                             0.520000
        a2                             5.000000
        s9                             5.000000
      * Repulsion:
        kExp                           1.500000    1.000000
        rExp                           1.000000
      * Coulomb:
        alpha                          2.000000
        third order                    shell-resolved
        anisotropic                    true
        a3                             3.000000
        a5                             4.000000
        cn-shift                       1.200000
        cn-exp                         4.000000
        max-rad                        5.000000

      * Solvation model:               ALPB
        Solvent                        water
        Parameter file                 internal GFN2-xTB/ALPB
        Dielectric constant                8.0200E+01
        Reference state                gsolv [1 M gas/solution]
        Free energy shift                  1.0808E-03 Eh       6.7819E-01 kcal/mol
        Temperature                        2.9815E+02 K
        Density                            1.0000E+00 kg/L
        Solvent mass                       1.8000E+01 g/mol
        Interaction kernel             P16
        Born radius scaling (c1)           1.4744E+00
        Born radii integrator          GBOBC
        Born offset                        0.0000E+00 a0       0.0000E+00 AA
        H-bond correction              true
        Ion screening                  false
        Surface tension                    1.0000E-05 Eh       1.5569E+01 dyn/cm
        Grid points                               230 per atom
q/qsh data taken from xtbrestart
CAMM data taken from xtbrestart

          ...................................................
          :                      SETUP                      :
          :.................................................:
          :  # basis functions                  52          :
          :  # atomic orbitals                  52          :
          :  # shells                           30          :
          :  # electrons                        58          :
          :  max. iterations                   250          :
          :  Hamiltonian                  GFN2-xTB          :
          :  restarted?                       true          :
          :  GBSA solvation                   true          :
          :  PC potential                    false          :
          :  electronic temp.          300.0000000     K    :
          :  accuracy                    1.0000000          :
          :  -> integral cutoff          0.2500000E+02      :
          :  -> integral neglect         0.1000000E-07      :
          :  -> SCF convergence          0.1000000E-05 Eh   :
          :  -> wf. convergence          0.1000000E-03 e    :
          :  Broyden damping             0.4000000          :
          ...................................................

 iter      E             dE          RMSdq      gap      omega  full diag
   1    -33.7985309 -0.337985E+02  0.655E-05    2.56       0.0  T
   2    -33.7985309 -0.640199E-11  0.410E-05    2.56     559.3  T
   3    -33.7985309 -0.117240E-11  0.191E-05    2.56    1204.0  T

   *** convergence criteria satisfied after 3 iterations ***

         #    Occupation            Energy/Eh            Energy/eV
      -------------------------------------------------------------
         1        2.0000           -0.7336187             -19.9628
       ...           ...                  ...                  ...
        23        2.0000           -0.4754429             -12.9375
        24        2.0000           -0.4610606             -12.5461
        25        2.0000           -0.4586632             -12.4809
        26        2.0000           -0.4424143             -12.0387
        27        2.0000           -0.4121562             -11.2153
        28        2.0000           -0.4057726             -11.0416
        29        2.0000           -0.3874393             -10.5428 (HOMO)
        30                         -0.2933721              -7.9831 (LUMO)
        31                         -0.2330656              -6.3420
        32                         -0.1981418              -5.3917
        33                         -0.0966070              -2.6288
        34                         -0.0059567              -0.1621
       ...                                ...                  ...
        52                          0.6448228              17.5465
      -------------------------------------------------------------
                  HL-Gap            0.0940671 Eh            2.5597 eV
             Fermi-level           -0.3404057 Eh           -9.2629 eV

 SCC (total)                   0 d,  0 h,  0 min,  0.009 sec
 SCC setup                      ...        0 min,  0.001 sec (  5.473%)
 Dispersion                     ...        0 min,  0.000 sec (  1.563%)
 classical contributions        ...        0 min,  0.000 sec (  0.298%)
 integral evaluation            ...        0 min,  0.002 sec ( 21.352%)
 iterations                     ...        0 min,  0.003 sec ( 27.500%)
 molecular gradient             ...        0 min,  0.004 sec ( 41.462%)
 printout                       ...        0 min,  0.000 sec (  2.052%)

         :::::::::::::::::::::::::::::::::::::::::::::::::::::
         ::                     SUMMARY                     ::
         :::::::::::::::::::::::::::::::::::::::::::::::::::::
         :: total energy             -33.391802208945 Eh    ::
         :: total w/o Gsasa/hb       -33.388472110505 Eh    ::
         :: gradient norm              0.025265416375 Eh/a0 ::
         :: HOMO-LUMO gap              2.559697260565 eV    ::
         ::.................................................::
         :: SCC energy               -33.798530883396 Eh    ::
         :: -> isotropic ES            0.073121210503 Eh    ::
         :: -> anisotropic ES          0.001411764603 Eh    ::
         :: -> anisotropic XC          0.007140857186 Eh    ::
         :: -> dispersion             -0.015448137058 Eh    ::
         :: -> Gsolv                  -0.015875762967 Eh    ::
         ::    -> Gelec               -0.012545664528 Eh    ::
         ::    -> Gsasa                0.002600675145 Eh    ::
         ::    -> Ghb                 -0.007011533283 Eh    ::
         ::    -> Gshift               0.001080759698 Eh    ::
         :: repulsion energy           0.406688904476 Eh    ::
         :: add. restraining           0.000000000000 Eh    ::
         :: total charge               0.000000000000 e     ::
         :::::::::::::::::::::::::::::::::::::::::::::::::::::

           -------------------------------------------------
          |                Property Printout                |
           -------------------------------------------------

    * Orbital Energies and Occupations

         #    Occupation            Energy/Eh            Energy/eV
      -------------------------------------------------------------
         1        2.0000           -0.7336187             -19.9628
       ...           ...                  ...                  ...
        17        2.0000           -0.5315410             -14.4640
        18        2.0000           -0.5289567             -14.3936
        19        2.0000           -0.5149218             -14.0117
        20        2.0000           -0.5013420             -13.6422
        21        2.0000           -0.4867122             -13.2441
        22        2.0000           -0.4787320             -13.0270
        23        2.0000           -0.4754429             -12.9375
        24        2.0000           -0.4610606             -12.5461
        25        2.0000           -0.4586632             -12.4809
        26        2.0000           -0.4424143             -12.0387
        27        2.0000           -0.4121562             -11.2153
        28        2.0000           -0.4057726             -11.0416
        29        2.0000           -0.3874393             -10.5428 (HOMO)
        30                         -0.2933721              -7.9831 (LUMO)
        31                         -0.2330656              -6.3420
        32                         -0.1981418              -5.3917
        33                         -0.0966070              -2.6288
        34                         -0.0059567              -0.1621
        35                          0.0662828               1.8036
        36                          0.0918044               2.4981
        37                          0.1081171               2.9420
        38                          0.1157724               3.1503
        39                          0.1557494               4.2382
        40                          0.1596003               4.3429
       ...                                ...                  ...
        52                          0.6448228              17.5465
      -------------------------------------------------------------
                  HL-Gap            0.0940671 Eh            2.5597 eV
             Fermi-level           -0.3404057 Eh           -9.2629 eV

     #   Z          covCN         q      C6AA      α(0)
     1   6 C        2.967    -0.024    28.605     8.773
     2   6 C        2.916    -0.068    29.698     8.936
     3   6 C        2.856     0.116    25.445     8.268
     4   6 C        2.845     0.141    24.919     8.181
     5   6 C        2.911    -0.061    29.504     8.907
     6   6 C        2.916    -0.027    28.672     8.781
     7   8 O        1.659    -0.419    21.213     6.218
     8   1 H        0.805     0.388     0.507     1.119
     9   1 H        0.925     0.067     2.120     2.277
    10   8 O        1.703    -0.291    18.832     5.859
    11   6 C        3.639     0.011    20.752     6.552
    12   1 H        0.924     0.061     2.182     2.310
    13   1 H        0.924     0.090     1.878     2.143
    14   1 H        0.924     0.061     2.182     2.310
    15   1 H        0.925     0.070     2.089     2.260
    16   1 H        0.925     0.079     1.985     2.203
    17   6 C        2.767     0.208    23.595     7.955
    18   8 O        0.856    -0.430    22.290     6.330
    19   1 H        0.922     0.026     2.643     2.542

 Mol. C6AA /au·bohr⁶  :       4289.191122
 Mol. C8AA /au·bohr⁸  :     102014.622192
 Mol. α(0) /au        :        101.924030


Wiberg/Mayer (AO) data.
largest (>0.10) Wiberg bond orders for each atom

 ---------------------------------------------------------------------------
     #   Z sym  total        # sym  WBO       # sym  WBO       # sym  WBO
 ---------------------------------------------------------------------------
     1   6 C    3.987 --     6 C    1.358     2 C    1.322    17 C    1.108
     2   6 C    3.987 --     3 C    1.438     1 C    1.322     9 H    0.960
     3   6 C    3.941 --     2 C    1.438     4 C    1.256    10 O    1.060
     4   6 C    3.948 --     5 C    1.374     3 C    1.256     7 O    1.116
     5   6 C    3.984 --     6 C    1.461     4 C    1.374    16 H    0.963
     6   6 C    3.988 --     5 C    1.461     1 C    1.358    15 H    0.965
     7   8 O    2.111 --     4 C    1.116     8 H    0.825
     8   1 H    0.849 --     7 O    0.825
     9   1 H    0.996 --     2 C    0.960
    10   8 O    2.215 --     3 C    1.060    11 C    0.961
    11   6 C    3.922 --    14 H    0.977    12 H    0.977    13 H    0.977
                            10 O    0.961
    12   1 H    0.996 --    11 C    0.977
    13   1 H    0.991 --    11 C    0.977
    14   1 H    0.996 --    11 C    0.977
    15   1 H    0.995 --     6 C    0.965
    16   1 H    0.992 --     5 C    0.963
    17   6 C    3.907 --    18 O    1.782     1 C    1.108    19 H    0.934
    18   8 O    2.000 --    17 C    1.782
    19   1 H    0.999 --    17 C    0.934
 ---------------------------------------------------------------------------

Topologies differ in total number of bonds
Writing topology from bond orders to xtbtopo.mol

molecular dipole:
                 x           y           z       tot (Debye)
 q only:       -2.458      -0.773      -0.000
   full:       -2.515      -1.138      -0.000       7.017
molecular quadrupole (traceless):
                xx          xy          yy          xz          yz          zz
 q only:      -12.434       7.477      10.302       0.009       0.001       2.132
  q+dip:      -13.749       7.599      12.044       0.011      -0.000       1.705
   full:      -14.879       7.815      10.594       0.011       0.001       4.285


           -------------------------------------------------
          | TOTAL ENERGY              -33.391802208945 Eh   |
          | GRADIENT NORM               0.025265416375 Eh/α |
          | HOMO-LUMO GAP               2.559697260565 eV   |
           -------------------------------------------------

------------------------------------------------------------------------
 * finished run on 2021/11/15 at 09:23:07.311     
------------------------------------------------------------------------
 total:
 * wall-time:     0 d,  0 h,  0 min,  0.034 sec
 *  cpu-time:     0 d,  0 h,  0 min,  0.016 sec
 * ratio c/w:     0.456 speedup
 SCF:
 * wall-time:     0 d,  0 h,  0 min,  0.010 sec
 *  cpu-time:     0 d,  0 h,  0 min,  0.016 sec
 * ratio c/w:     1.625 speedup

