      -----------------------------------------------------------      
     |                   =====================                   |     
     |                           x T B                           |     
     |                   =====================                   |     
     |                         S. Grimme                         |     
     |          Mulliken Center for Theoretical Chemistry        |     
     |                    University of Bonn                     |     
      -----------------------------------------------------------      

   * xtb version 6.4.1 (afa7bdf) compiled by 'ehlert@majestix' on 2021-06-10

   xtb is free software: you can redistribute it and/or modify it under
   the terms of the GNU Lesser General Public License as published by
   the Free Software Foundation, either version 3 of the License, or
   (at your option) any later version.
   
   xtb is distributed in the hope that it will be useful,
   but WITHOUT ANY WARRANTY; without even the implied warranty of
   MERCHANTABILITY or FITNESS FOR A PARTICULAR PURPOSE.  See the
   GNU Lesser General Public License for more details.
   
   Cite this work as:
   * C. Bannwarth, E. Caldeweyher, S. Ehlert, A. Hansen, P. Pracht,
     J. Seibert, S. Spicher, S. Grimme, WIREs Comput. Mol. Sci., 2020, 11,
     e01493. DOI: 10.1002/wcms.1493
   
   for GFN2-xTB:
   * C. Bannwarth, S. Ehlert and S. Grimme., J. Chem. Theory Comput., 2019,
     15, 1652-1671. DOI: 10.1021/acs.jctc.8b01176
   for GFN1-xTB:
   * S. Grimme, C. Bannwarth, P. Shushkov, J. Chem. Theory Comput., 2017,
     13, 1989-2009. DOI: 10.1021/acs.jctc.7b00118
   for GFN0-xTB:
   * P. Pracht, E. Caldeweyher, S. Ehlert, S. Grimme, ChemRxiv, 2019, preprint.
     DOI: 10.26434/chemrxiv.8326202.v1
   for GFN-FF:
   * S. Spicher and S. Grimme, Angew. Chem. Int. Ed., 2020, 59, 15665-15673.
     DOI: 10.1002/anie.202004239
   
   for DFT-D4:
   * E. Caldeweyher, C. Bannwarth and S. Grimme, J. Chem. Phys., 2017,
     147, 034112. DOI: 10.1063/1.4993215
   * E. Caldeweyher, S. Ehlert, A. Hansen, H. Neugebauer, S. Spicher,
     C. Bannwarth and S. Grimme, J. Chem. Phys., 2019, 150, 154122.
     DOI: 10.1063/1.5090222
   * E. Caldeweyher, J.-M. Mewes, S. Ehlert and S. Grimme, Phys. Chem. Chem. Phys.
     2020, 22, 8499-8512. DOI: 10.1039/D0CP00502A
   
   for sTDA-xTB:
   * S. Grimme and C. Bannwarth, J. Chem. Phys., 2016, 145, 054103.
     DOI: 10.1063/1.4959605
   
   in the mass-spec context:
   * V. Asgeirsson, C. Bauer and S. Grimme, Chem. Sci., 2017, 8, 4879.
     DOI: 10.1039/c7sc00601b
   * J. Koopman and S. Grimme, ACS Omega 2019, 4, 12, 15120-15133.
     DOI: 10.1021/acsomega.9b02011
   
   for metadynamics refer to:
   * S. Grimme, J. Chem. Theory Comput., 2019, 155, 2847-2862
     DOI: 10.1021/acs.jctc.9b00143
   
   for SPH calculations refer to:
   * S. Spicher and S. Grimme, J. Chem. Theory Comput., 2021, 17, 1701-1714
     DOI: 10.1021/acs.jctc.0c01306
   
   with help from (in alphabetical order)
   P. Atkinson, C. Bannwarth, F. Bohle, G. Brandenburg, E. Caldeweyher
   M. Checinski, S. Dohm, S. Ehlert, S. Ehrlich, I. Gerasimov, J. Koopman
   C. Lavigne, S. Lehtola, F. März, M. Müller, F. Musil, H. Neugebauer
   J. Pisarek, C. Plett, P. Pracht, J. Seibert, P. Shushkov, S. Spicher
   M. Stahn, M. Steiner, T. Strunk, J. Stückrath, T. Rose, and J. Unsleber
   
 * started run on 2021/11/15 at 09:36:17.498     

           -------------------------------------------------
          |                Calculation Setup                |
           -------------------------------------------------

          program call               : xtb 21_2-methoxyaniline.xyz --gfn2 --chrg 0 --uhf 0 --alpb water --ohess -P 1
          coordinate file            : 21_2-methoxyaniline.xyz
          omp threads                :                     1
          number of atoms            :                    18
          number of electrons        :                    48
          charge                     :                     0
          spin                       :                   0.0
          first test random number   :      0.14253728935293

   ID    Z sym.   atoms
    1    6 C      1-6, 15
    2    1 H      7, 8, 10-13, 16-18
    3    7 N      9
    4    8 O      14

           -------------------------------------------------
          |                 G F N 2 - x T B                 |
           -------------------------------------------------

        Reference                      10.1021/acs.jctc.8b01176
      * Hamiltonian:
        H0-scaling (s, p, d)           1.850000    2.230000    2.230000
        zeta-weighting                 0.500000
      * Dispersion:
        s8                             2.700000
        a1                             0.520000
        a2                             5.000000
        s9                             5.000000
      * Repulsion:
        kExp                           1.500000    1.000000
        rExp                           1.000000
      * Coulomb:
        alpha                          2.000000
        third order                    shell-resolved
        anisotropic                    true
        a3                             3.000000
        a5                             4.000000
        cn-shift                       1.200000
        cn-exp                         4.000000
        max-rad                        5.000000

      * Solvation model:               ALPB
        Solvent                        water
        Parameter file                 internal GFN2-xTB/ALPB
        Dielectric constant                8.0200E+01
        Reference state                gsolv [1 M gas/solution]
        Free energy shift                  1.0808E-03 Eh       6.7819E-01 kcal/mol
        Temperature                        2.9815E+02 K
        Density                            1.0000E+00 kg/L
        Solvent mass                       1.8000E+01 g/mol
        Interaction kernel             P16
        Born radius scaling (c1)           1.4744E+00
        Born radii integrator          GBOBC
        Born offset                        0.0000E+00 a0       0.0000E+00 AA
        H-bond correction              true
        Ion screening                  false
        Surface tension                    1.0000E-05 Eh       1.5569E+01 dyn/cm
        Grid points                               230 per atom

          ...................................................
          :                      SETUP                      :
          :.................................................:
          :  # basis functions                  45          :
          :  # atomic orbitals                  45          :
          :  # shells                           27          :
          :  # electrons                        48          :
          :  max. iterations                   250          :
          :  Hamiltonian                  GFN2-xTB          :
          :  restarted?                      false          :
          :  GBSA solvation                   true          :
          :  PC potential                    false          :
          :  electronic temp.          300.0000000     K    :
          :  accuracy                    1.0000000          :
          :  -> integral cutoff          0.2500000E+02      :
          :  -> integral neglect         0.1000000E-07      :
          :  -> SCF convergence          0.1000000E-05 Eh   :
          :  -> wf. convergence          0.1000000E-03 e    :
          :  Broyden damping             0.4000000          :
          ...................................................

 iter      E             dE          RMSdq      gap      omega  full diag
   1    -26.9118810 -0.269119E+02  0.445E+00    3.46       0.0  T
   2    -26.9337868 -0.219057E-01  0.252E+00    3.77       1.0  T
   3    -26.9325906  0.119617E-02  0.766E-01    3.76       1.0  T
   4    -26.9353241 -0.273354E-02  0.199E-01    3.77       1.0  T
   5    -26.9357628 -0.438709E-03  0.796E-02    3.78       1.0  T
   6    -26.9357705 -0.763849E-05  0.328E-02    3.77       1.0  T
   7    -26.9357728 -0.236612E-05  0.134E-02    3.78       1.8  T
   8    -26.9357738 -0.955355E-06  0.374E-03    3.78       6.3  T
   9    -26.9357738 -0.243388E-07  0.206E-03    3.78      11.5  T
  10    -26.9357738 -0.116281E-07  0.106E-03    3.78      22.2  T
  11    -26.9357738 -0.566476E-08  0.413E-04    3.78      57.1  T
  12    -26.9357738 -0.460005E-09  0.175E-04    3.78     134.4  T

   *** convergence criteria satisfied after 12 iterations ***

         #    Occupation            Energy/Eh            Energy/eV
      -------------------------------------------------------------
         1        2.0000           -0.7115823             -19.3631
       ...           ...                  ...                  ...
        18        2.0000           -0.4588994             -12.4873
        19        2.0000           -0.4442801             -12.0895
        20        2.0000           -0.4321754             -11.7601
        21        2.0000           -0.4260962             -11.5947
        22        2.0000           -0.4199557             -11.4276
        23        2.0000           -0.3828393             -10.4176
        24        2.0000           -0.3499736              -9.5233 (HOMO)
        25                         -0.2112005              -5.7471 (LUMO)
        26                         -0.2045682              -5.5666
        27                         -0.0837999              -2.2803
        28                          0.0151312               0.4117
        29                          0.0602213               1.6387
       ...                                ...                  ...
        45                          0.6530807              17.7712
      -------------------------------------------------------------
                  HL-Gap            0.1387732 Eh            3.7762 eV
             Fermi-level           -0.2805871 Eh           -7.6352 eV

 SCC (total)                   0 d,  0 h,  0 min,  0.011 sec
 SCC setup                      ...        0 min,  0.000 sec (  4.110%)
 Dispersion                     ...        0 min,  0.000 sec (  1.198%)
 classical contributions        ...        0 min,  0.000 sec (  0.218%)
 integral evaluation            ...        0 min,  0.002 sec ( 17.884%)
 iterations                     ...        0 min,  0.005 sec ( 44.696%)
 molecular gradient             ...        0 min,  0.003 sec ( 30.362%)
 printout                       ...        0 min,  0.000 sec (  1.352%)

         :::::::::::::::::::::::::::::::::::::::::::::::::::::
         ::                     SUMMARY                     ::
         :::::::::::::::::::::::::::::::::::::::::::::::::::::
         :: total energy             -26.553790304590 Eh    ::
         :: total w/o Gsasa/hb       -26.549346769041 Eh    ::
         :: gradient norm              0.021794459439 Eh/a0 ::
         :: HOMO-LUMO gap              3.776209997675 eV    ::
         ::.................................................::
         :: SCC energy               -26.935773843037 Eh    ::
         :: -> isotropic ES            0.029881686759 Eh    ::
         :: -> anisotropic ES          0.005481123982 Eh    ::
         :: -> anisotropic XC          0.011886126090 Eh    ::
         :: -> dispersion             -0.013771856804 Eh    ::
         :: -> Gsolv                  -0.008286981068 Eh    ::
         ::    -> Gelec               -0.003843445518 Eh    ::
         ::    -> Gsasa               -0.002227349678 Eh    ::
         ::    -> Ghb                 -0.003296945570 Eh    ::
         ::    -> Gshift               0.001080759698 Eh    ::
         :: repulsion energy           0.381939335119 Eh    ::
         :: add. restraining           0.000000000000 Eh    ::
         :: total charge               0.000000000000 e     ::
         :::::::::::::::::::::::::::::::::::::::::::::::::::::

      ----------------------------------------------------------- 
     |                   =====================                   |
     |                        A N C O P T                        |
     |                   =====================                   |
     |               Approximate Normal Coordinate               |
     |                Rational Function Optimizer                |
      ----------------------------------------------------------- 

          ...................................................
          :                      SETUP                      :
          :.................................................:
          :   optimization level            normal          :
          :   max. optcycles                   200          :
          :   ANC micro-cycles                  20          :
          :   degrees of freedom                48          :
          :.................................................:
          :   RF solver                   davidson          :
          :   write xtbopt.log                true          :
          :   linear?                        false          :
          :   energy convergence         0.5000000E-05 Eh   :
          :   grad. convergence          0.1000000E-02 Eh/α :
          :   maximium RF displ.         1.0000000          :
          :   Hlow (freq-cutoff)         0.1000000E-01      :
          :   Hmax (freq-cutoff)         5.0000000          :
          :   S6 in model hess.         20.0000000          :
          ...................................................

generating ANC from model Hessian ...
Using Lindh-Hessian (1995)
 Shifting diagonal of input Hessian by   7.290649567234256E-003
 Lowest  eigenvalues of input Hessian
    0.000000    0.000000    0.000000    0.000000    0.000000    0.000000
    0.010000    0.012038    0.014465    0.015726    0.020315    0.024241
    0.028236    0.029853    0.036549    0.052830    0.061930    0.072367
 Highest eigenvalues
    1.544349    1.665990    1.771775    1.873464    2.000198    2.088295
 

........................................................................
.............................. CYCLE    1 ..............................
........................................................................
   1    -26.9357738 -0.269358E+02  0.760E-05    3.78       0.0  T
   2    -26.9357738 -0.104450E-10  0.479E-05    3.78     492.2  T
   3    -26.9357738 -0.193268E-11  0.282E-05    3.78     835.8  T
     SCC iter.                  ...        0 min,  0.002 sec
     gradient                   ...        0 min,  0.003 sec
 * total energy  :   -26.5537903 Eh     change       -0.2135678E-09 Eh
   gradient norm :     0.0217951 Eh/α   predicted     0.0000000E+00 (-100.00%)
   displ. norm   :     0.1037770 α      lambda       -0.1520398E-02
   maximum displ.:     0.0472903 α      in ANC's #23, #4, #17, ...

........................................................................
.............................. CYCLE    2 ..............................
........................................................................
   1    -26.9501926 -0.269502E+02  0.112E-01    3.81       0.0  T
   2    -26.9502001 -0.746562E-05  0.663E-02    3.82       1.0  T
   3    -26.9501960  0.408347E-05  0.352E-02    3.82       1.0  T
   4    -26.9502041 -0.805651E-05  0.366E-03    3.82       6.4  T
   5    -26.9502041 -0.362992E-07  0.226E-03    3.82      10.4  T
   6    -26.9502041 -0.150655E-07  0.118E-03    3.82      20.1  T
   7    -26.9502041 -0.516077E-08  0.360E-04    3.82      65.5  T
   8    -26.9502041 -0.356071E-09  0.178E-04    3.82     132.6  T
     SCC iter.                  ...        0 min,  0.003 sec
     gradient                   ...        0 min,  0.003 sec
 * total energy  :   -26.5547580 Eh     change       -0.9676957E-03 Eh
   gradient norm :     0.0085581 Eh/α   predicted    -0.7683863E-03 ( -20.60%)
   displ. norm   :     0.0731629 α      lambda       -0.2971741E-03
   maximum displ.:     0.0372415 α      in ANC's #4, #2, #27, ...

........................................................................
.............................. CYCLE    3 ..............................
........................................................................
   1    -26.9550516 -0.269551E+02  0.646E-02    3.81       0.0  T
   2    -26.9550584 -0.679774E-05  0.365E-02    3.82       1.0  T
   3    -26.9550597 -0.132302E-05  0.231E-02    3.82       1.0  T
   4    -26.9550617 -0.191579E-05  0.299E-03    3.82       7.9  T
   5    -26.9550617 -0.291229E-07  0.180E-03    3.82      13.1  T
   6    -26.9550617 -0.828814E-08  0.964E-04    3.82      24.4  T
   7    -26.9550617 -0.356631E-08  0.333E-04    3.82      70.8  T
     SCC iter.                  ...        0 min,  0.003 sec
     gradient                   ...        0 min,  0.003 sec
 * total energy  :   -26.5549551 Eh     change       -0.1970560E-03 Eh
   gradient norm :     0.0055174 Eh/α   predicted    -0.1493837E-03 ( -24.19%)
   displ. norm   :     0.0704970 α      lambda       -0.1342517E-03
   maximum displ.:     0.0392133 α      in ANC's #4, #2, #6, ...

........................................................................
.............................. CYCLE    4 ..............................
........................................................................
   1    -26.9559501 -0.269560E+02  0.536E-02    3.80       0.0  T
   2    -26.9559560 -0.588270E-05  0.298E-02    3.81       1.0  T
   3    -26.9559573 -0.136030E-05  0.192E-02    3.81       1.2  T
   4    -26.9559585 -0.117614E-05  0.279E-03    3.81       8.5  T
   5    -26.9559585 -0.226051E-07  0.156E-03    3.81      15.1  T
   6    -26.9559585 -0.586970E-08  0.808E-04    3.81      29.2  T
   7    -26.9559585 -0.257381E-08  0.302E-04    3.81      78.0  T
     SCC iter.                  ...        0 min,  0.003 sec
     gradient                   ...        0 min,  0.003 sec
 * total energy  :   -26.5550497 Eh     change       -0.9462667E-04 Eh
   gradient norm :     0.0043305 Eh/α   predicted    -0.6745965E-04 ( -28.71%)
   displ. norm   :     0.0592040 α      lambda       -0.7285173E-04
   maximum displ.:     0.0343555 α      in ANC's #4, #2, #6, ...

........................................................................
.............................. CYCLE    5 ..............................
........................................................................
   1    -26.9553203 -0.269553E+02  0.449E-02    3.78       0.0  T
   2    -26.9553236 -0.338328E-05  0.252E-02    3.79       1.0  T
   3    -26.9553241 -0.431347E-06  0.158E-02    3.79       1.5  T
   4    -26.9553250 -0.937859E-06  0.225E-03    3.79      10.5  T
   5    -26.9553250 -0.129364E-07  0.116E-03    3.79      20.3  T
   6    -26.9553250 -0.304249E-08  0.543E-04    3.79      43.4  T
   7    -26.9553250 -0.125020E-08  0.192E-04    3.79     122.8  T
     SCC iter.                  ...        0 min,  0.003 sec
     gradient                   ...        0 min,  0.004 sec
 * total energy  :   -26.5550950 Eh     change       -0.4535044E-04 Eh
   gradient norm :     0.0022704 Eh/α   predicted    -0.3655489E-04 ( -19.39%)
   displ. norm   :     0.0213539 α      lambda       -0.1283666E-04
   maximum displ.:     0.0102783 α      in ANC's #4, #2, #1, ...

........................................................................
.............................. CYCLE    6 ..............................
........................................................................
   1    -26.9549829 -0.269550E+02  0.166E-02    3.79       0.0  T
   2    -26.9549831 -0.236471E-06  0.954E-03    3.79       2.5  T
   3    -26.9549831  0.651408E-07  0.492E-03    3.79       4.8  T
   4    -26.9549832 -0.153325E-06  0.731E-04    3.79      32.2  T
   5    -26.9549832 -0.919094E-09  0.355E-04    3.79      66.4  T
     SCC iter.                  ...        0 min,  0.003 sec
     gradient                   ...        0 min,  0.003 sec
 * total energy  :   -26.5551027 Eh     change       -0.7669266E-05 Eh
   gradient norm :     0.0007701 Eh/α   predicted    -0.6421278E-05 ( -16.27%)
   displ. norm   :     0.0128247 α      lambda       -0.1500809E-05
   maximum displ.:     0.0083516 α      in ANC's #1, #2, #4, ...

........................................................................
.............................. CYCLE    7 ..............................
........................................................................
   1    -26.9549862 -0.269550E+02  0.889E-03    3.79       0.0  T
   2    -26.9549862 -0.543555E-07  0.513E-03    3.79       4.6  T
   3    -26.9549862  0.231039E-07  0.221E-03    3.79      10.7  T
   4    -26.9549863 -0.430988E-07  0.368E-04    3.79      64.0  T
   5    -26.9549863 -0.185540E-09  0.196E-04    3.79     120.3  T
     SCC iter.                  ...        0 min,  0.002 sec
     gradient                   ...        0 min,  0.003 sec
 * total energy  :   -26.5551038 Eh     change       -0.1064634E-05 Eh
   gradient norm :     0.0003351 Eh/α   predicted    -0.7504095E-06 ( -29.51%)
   displ. norm   :     0.0044453 α      lambda       -0.2531350E-06
   maximum displ.:     0.0034001 α      in ANC's #1, #4, #5, ...

   *** GEOMETRY OPTIMIZATION CONVERGED AFTER 7 ITERATIONS ***

------------------------------------------------------------------------
 total energy gain   :        -0.0013135 Eh       -0.8242 kcal/mol
 total RMSD          :         0.0697250 a0        0.0369 Å
 total power (kW/mol):        -0.4926423 (step)  -56.8441 (real)
------------------------------------------------------------------------

 ANCopt (total)                0 d,  0 h,  0 min,  0.061 sec
 optimizer setup                ...        0 min,  0.000 sec (  0.277%)
 model hessian                  ...        0 min,  0.002 sec (  2.919%)
 ANC generation                 ...        0 min,  0.000 sec (  0.562%)
 coordinate transformation      ...        0 min,  0.000 sec (  0.077%)
 single point calculation       ...        0 min,  0.056 sec ( 91.793%)
 optimization log               ...        0 min,  0.001 sec (  2.198%)
 hessian update                 ...        0 min,  0.000 sec (  0.084%)
 rational function              ...        0 min,  0.001 sec (  1.319%)

================
 final structure:
================
18
 xtb: 6.4.1 (afa7bdf)
C         1.32702651090765   -1.69419700326684    0.00367818053452
C        -0.02896032191478   -1.38897952985956    0.00115911313353
C        -0.44672062291498   -0.07242658615593   -0.00827253591512
C         0.50186761146642    0.97284728354397   -0.01432832840589
C         1.85236319292086    0.64205895239667   -0.02058518627043
C         2.26320269581104   -0.68013599109178   -0.00930188840663
H         3.31728098134867   -0.91304180910857   -0.01311723520723
H         2.58238761573334    1.43770890154987   -0.03085829717026
N         0.07582522216040    2.28170251433806    0.05570220872060
H         0.72408982567230    2.97340502878351   -0.28250437473952
H        -0.88661144797695    2.42451058360347   -0.20447630520689
H        -0.74752163881125   -2.19314632968556    0.00469554289277
H         1.63729600311172   -2.72769826237537    0.01293288589826
O        -1.76450806988479    0.33890381541479   -0.02793007353385
C        -2.77309155006686   -0.64690781327506   -0.02880334032432
H        -3.71225328741971   -0.09766717251683   -0.04453190803257
H        -2.70548417156820   -1.28419279261571   -0.91550021482465
H        -2.72498654857487   -1.26464578967911    0.87241375685765
 
 Bond Distances (Angstroems)
 ---------------------------
C1-C2=1.3899         C1-C6=1.3802         C1-H13=1.0791        C2-C1=1.3899         C2-C3=1.3813         C2-H12=1.0784        
C3-C2=1.3813         C3-C4=1.4115         C3-O14=1.3806        C4-C3=1.4115         C4-C5=1.3904         C4-N9=1.3782         
C5-C4=1.3904         C5-C6=1.3846         C5-H8=1.0799         C6-C1=1.3802         C6-C5=1.3846         C6-H7=1.0795         
H7-C6=1.0795         H8-C5=1.0799         N9-C4=1.3782         N9-H10=1.0065        N9-H11=1.0072        H10-N9=1.0065        
H11-N9=1.0072        H12-C2=1.0784        H13-C1=1.0791        O14-C3=1.3806        O14-C15=1.4103       C15-O14=1.4103       
C15-H16=1.0881       C15-H17=1.0940       C15-H18=1.0937       H16-C15=1.0881       H17-C15=1.0940       H18-C15=1.0937       
 C  H  Rav=1.0847 sigma=0.0065  Rmin=1.0784  Rmax=1.0940     7
 C  C  Rav=1.3897 sigma=0.0105  Rmin=1.3802  Rmax=1.4115     6
 N  H  Rav=1.0068 sigma=0.0003  Rmin=1.0065  Rmax=1.0072     2
 N  C  Rav=1.3782 sigma=0.0000  Rmin=1.3782  Rmax=1.3782     1
 O  C  Rav=1.3955 sigma=0.0149  Rmin=1.3806  Rmax=1.4103     2
 
 selected bond angles (degree)
 --------------------
C6-C1-C2=120.03                H13-C1-C2=119.40               H13-C1-C6=120.58               C3-C2-C1=120.29                
H12-C2-C1=119.10               H12-C2-C3=120.61               C4-C3-C2=120.17                O14-C3-C2=124.94               
O14-C3-C4=114.88               C5-C4-C3=118.46                N9-C4-C3=119.69                N9-C4-C5=121.76                
C6-C5-C4=121.02                H8-C5-C4=118.78                H8-C5-C6=120.20                C5-C6-C1=120.03                
H7-C6-C1=120.25                H7-C6-C5=119.72                H10-N9-C4=115.88               H11-N9-C4=114.64               
H11-N9-H10=115.54              
 
 selected dihedral angles (degree)
 ---------------------------------
C3-C2-C1-C6=359.71            C3-C2-C1-H13=179.89           H12-C2-C1-C6=179.59           H12-C2-C1-H13=359.77          
C4-C3-C2-C1=359.95            C4-C3-C2-H12=180.07           O14-C3-C2-C1=179.17           O14-C3-C2-H12=359.29          
C5-C4-C3-C2=  0.47            C5-C4-C3-O14=181.17           N9-C4-C3-C2=183.80            N9-C4-C3-O14=  4.51           
C6-C5-C4-C3=359.44            C6-C5-C4-N9=176.03            H8-C5-C4-C3=179.66            H8-C5-C4-N9=356.25            
C5-C6-C1-C2=  0.20            C5-C6-C1-H13=180.02           H7-C6-C1-C2=180.35            H7-C6-C1-H13=  0.17           
C1-C6-C5-C4=  0.23            C1-C6-C5-H8=180.01            H7-C6-C5-C4=180.08            H7-C6-C5-H8=359.86            
H10-N9-C4-C3=201.55           H10-N9-C4-C5= 24.99           H11-N9-C4-C3=340.12           H11-N9-C4-C5=163.57           
           -------------------------------------------------
          |                Final Singlepoint                |
           -------------------------------------------------

          ...................................................
          :                      SETUP                      :
          :.................................................:
          :  # basis functions                  45          :
          :  # atomic orbitals                  45          :
          :  # shells                           27          :
          :  # electrons                        48          :
          :  max. iterations                   250          :
          :  Hamiltonian                  GFN2-xTB          :
          :  restarted?                      false          :
          :  GBSA solvation                   true          :
          :  PC potential                    false          :
          :  electronic temp.          300.0000000     K    :
          :  accuracy                    1.0000000          :
          :  -> integral cutoff          0.2500000E+02      :
          :  -> integral neglect         0.1000000E-07      :
          :  -> SCF convergence          0.1000000E-05 Eh   :
          :  -> wf. convergence          0.1000000E-03 e    :
          :  Broyden damping             0.4000000          :
          ...................................................

 iter      E             dE          RMSdq      gap      omega  full diag
   1    -26.9549863 -0.269550E+02  0.958E-05    3.79       0.0  T
   2    -26.9549863 -0.295479E-10  0.608E-05    3.79     387.8  T
   3    -26.9549863 -0.121716E-10  0.450E-05    3.79     523.3  T

   *** convergence criteria satisfied after 3 iterations ***

         #    Occupation            Energy/Eh            Energy/eV
      -------------------------------------------------------------
         1        2.0000           -0.7112043             -19.3529
       ...           ...                  ...                  ...
        18        2.0000           -0.4581685             -12.4674
        19        2.0000           -0.4439320             -12.0800
        20        2.0000           -0.4316179             -11.7449
        21        2.0000           -0.4264004             -11.6029
        22        2.0000           -0.4189010             -11.3989
        23        2.0000           -0.3829212             -10.4198
        24        2.0000           -0.3464481              -9.4273 (HOMO)
        25                         -0.2073085              -5.6412 (LUMO)
        26                         -0.2002429              -5.4489
        27                         -0.0769917              -2.0950
        28                          0.0195332               0.5315
        29                          0.0617296               1.6797
       ...                                ...                  ...
        45                          0.6789629              18.4755
      -------------------------------------------------------------
                  HL-Gap            0.1391395 Eh            3.7862 eV
             Fermi-level           -0.2768783 Eh           -7.5342 eV

 SCC (total)                   0 d,  0 h,  0 min,  0.007 sec
 SCC setup                      ...        0 min,  0.000 sec (  5.146%)
 Dispersion                     ...        0 min,  0.000 sec (  0.573%)
 classical contributions        ...        0 min,  0.000 sec (  0.210%)
 integral evaluation            ...        0 min,  0.001 sec ( 20.003%)
 iterations                     ...        0 min,  0.002 sec ( 25.075%)
 molecular gradient             ...        0 min,  0.003 sec ( 46.827%)
 printout                       ...        0 min,  0.000 sec (  1.943%)

         :::::::::::::::::::::::::::::::::::::::::::::::::::::
         ::                     SUMMARY                     ::
         :::::::::::::::::::::::::::::::::::::::::::::::::::::
         :: total energy             -26.555103767626 Eh    ::
         :: total w/o Gsasa/hb       -26.550637274665 Eh    ::
         :: gradient norm              0.000336914220 Eh/a0 ::
         :: HOMO-LUMO gap              3.786179684167 eV    ::
         ::.................................................::
         :: SCC energy               -26.954986250420 Eh    ::
         :: -> isotropic ES            0.029995220124 Eh    ::
         :: -> anisotropic ES          0.004550623373 Eh    ::
         :: -> anisotropic XC          0.011093695900 Eh    ::
         :: -> dispersion             -0.013827938151 Eh    ::
         :: -> Gsolv                  -0.008332036003 Eh    ::
         ::    -> Gelec               -0.003865543042 Eh    ::
         ::    -> Gsasa               -0.002127716740 Eh    ::
         ::    -> Ghb                 -0.003419535920 Eh    ::
         ::    -> Gshift               0.001080759698 Eh    ::
         :: repulsion energy           0.399838789983 Eh    ::
         :: add. restraining           0.000000000000 Eh    ::
         :: total charge              -0.000000000000 e     ::
         :::::::::::::::::::::::::::::::::::::::::::::::::::::

           ------------------------------------------------- 
          |                Numerical Hessian                |
           ------------------------------------------------- 
step length          :   0.00500
SCC accuracy         :   0.30000
Hessian scale factor :   1.00000
frozen atoms in %    :   0.00000    0
RMS gradient         :   0.00034
estimated CPU  time      0.01 min
estimated wall time      0.02 min

writing file <hessian>.

 projected vibrational frequencies (cm⁻¹)
eigval :       -0.00    -0.00    -0.00     0.00     0.00     0.00
eigval :       81.37   160.44   223.51   232.26   287.85   322.83
eigval :      359.36   433.20   472.55   493.01   523.20   554.38
eigval :      564.89   669.06   770.67   771.47   833.21   850.68
eigval :      881.64   909.46  1017.85  1041.66  1098.61  1118.37
eigval :     1129.19  1150.23  1177.27  1200.16  1267.77  1295.93
eigval :     1361.00  1393.61  1440.93  1458.32  1460.88  1478.59
eigval :     1505.55  1583.32  1595.01  2932.69  2949.07  3028.47
eigval :     3071.97  3077.96  3089.20  3103.04  3464.57  3523.78
           -------------------------------------------------
          |                Property Printout                |
           -------------------------------------------------

    * Orbital Energies and Occupations

         #    Occupation            Energy/Eh            Energy/eV
      -------------------------------------------------------------
         1        2.0000           -0.7112040             -19.3528
       ...           ...                  ...                  ...
        12        2.0000           -0.5211606             -14.1815
        13        2.0000           -0.5042567             -13.7215
        14        2.0000           -0.4911341             -13.3644
        15        2.0000           -0.4853240             -13.2063
        16        2.0000           -0.4786084             -13.0236
        17        2.0000           -0.4662613             -12.6876
        18        2.0000           -0.4581681             -12.4674
        19        2.0000           -0.4439317             -12.0800
        20        2.0000           -0.4316179             -11.7449
        21        2.0000           -0.4264004             -11.6029
        22        2.0000           -0.4189011             -11.3989
        23        2.0000           -0.3829211             -10.4198
        24        2.0000           -0.3464481              -9.4273 (HOMO)
        25                         -0.2073086              -5.6412 (LUMO)
        26                         -0.2002430              -5.4489
        27                         -0.0769917              -2.0951
        28                          0.0195335               0.5315
        29                          0.0617295               1.6797
        30                          0.1178360               3.2065
        31                          0.1239720               3.3735
        32                          0.1502641               4.0889
        33                          0.1722386               4.6868
        34                          0.1810964               4.9279
        35                          0.2023201               5.5054
       ...                                ...                  ...
        45                          0.6789628              18.4755
      -------------------------------------------------------------
                  HL-Gap            0.1391395 Eh            3.7862 eV
             Fermi-level           -0.2768783 Eh           -7.5342 eV

     #   Z          covCN         q      C6AA      α(0)
     1   6 C        2.920    -0.057    29.426     8.896
     2   6 C        2.916    -0.075    29.866     8.962
     3   6 C        2.866     0.106    25.650     8.302
     4   6 C        2.897     0.058    26.695     8.471
     5   6 C        2.924    -0.074    29.843     8.959
     6   6 C        2.917    -0.050    29.230     8.866
     7   1 H        0.926     0.029     2.594     2.519
     8   1 H        0.926     0.035     2.513     2.479
     9   7 N        2.640    -0.314    28.078     7.870
    10   1 H        0.860     0.201     1.101     1.644
    11   1 H        0.860     0.200     1.104     1.646
    12   1 H        0.926     0.034     2.531     2.488
    13   1 H        0.926     0.026     2.640     2.541
    14   8 O        1.704    -0.316    19.270     5.927
    15   6 C        3.640     0.028    20.460     6.505
    16   1 H        0.925     0.074     2.039     2.233
    17   1 H        0.924     0.046     2.372     2.408
    18   1 H        0.924     0.047     2.363     2.404

 Mol. C6AA /au·bohr⁶  :       3494.917565
 Mol. C8AA /au·bohr⁸  :      81666.138540
 Mol. α(0) /au        :         93.117535


Wiberg/Mayer (AO) data.
largest (>0.10) Wiberg bond orders for each atom

 ---------------------------------------------------------------------------
     #   Z sym  total        # sym  WBO       # sym  WBO       # sym  WBO
 ---------------------------------------------------------------------------
     1   6 C    3.990 --     6 C    1.450     2 C    1.400    13 H    0.972
     2   6 C    3.987 --     3 C    1.426     1 C    1.400    12 H    0.966
     3   6 C    3.926 --     2 C    1.426     4 C    1.266    14 O    1.023
     4   6 C    3.977 --     5 C    1.375     3 C    1.266     9 N    1.171
     5   6 C    3.985 --     6 C    1.429     4 C    1.375     8 H    0.968
     6   6 C    3.992 --     1 C    1.450     5 C    1.429     7 H    0.971
     7   1 H    0.999 --     6 C    0.971
     8   1 H    0.998 --     5 C    0.968
     9   7 N    3.247 --     4 C    1.171    10 H    0.940    11 H    0.939
    10   1 H    0.959 --     9 N    0.940
    11   1 H    0.960 --     9 N    0.939
    12   1 H    0.998 --     2 C    0.966
    13   1 H    0.999 --     1 C    0.972
    14   8 O    2.180 --     3 C    1.023    15 C    0.979
    15   6 C    3.939 --    14 O    0.979    16 H    0.978    18 H    0.977
                            17 H    0.977
    16   1 H    0.994 --    15 C    0.978
    17   1 H    0.998 --    15 C    0.977
    18   1 H    0.998 --    15 C    0.977
 ---------------------------------------------------------------------------

Topologies differ in total number of bonds
Writing topology from bond orders to xtbtopo.mol

molecular dipole:
                 x           y           z       tot (Debye)
 q only:       -0.450       0.436      -0.213
   full:       -0.525       0.304      -0.408       1.857
molecular quadrupole (traceless):
                xx          xy          yy          xz          yz          zz
 q only:        1.529       3.535       3.248      -0.023      -1.627      -4.777
  q+dip:        2.331       4.035       4.866      -0.051      -3.216      -7.197
   full:        1.819       4.226       3.832      -0.036      -3.223      -5.651

           -------------------------------------------------
          |                Geometry Summary                 |
           -------------------------------------------------

      molecular mass/u    :      123.1527262
   center of mass at/Å    :        0.0216998       0.0103925      -0.0096681
  moments of inertia/u·Å² :        0.1943587E+03   0.3246533E+03   0.5154189E+03
rotational constants/cm⁻¹ :        0.8673465E-01   0.5192503E-01   0.3270666E-01

 * 18 selected distances

     #   Z          #   Z                                           value/Å
     1   6 C        2   6 C                                       1.3899152
     2   6 C        3   6 C                                       1.3812763
     3   6 C        4   6 C                                       1.4115430 (max)
     4   6 C        5   6 C                                       1.3904310
     1   6 C        6   6 C                                       1.3801862
     5   6 C        6   6 C                                       1.3845995
     6   6 C        7   1 H                                       1.0795095
     5   6 C        8   1 H                                       1.0798611
     4   6 C        9   7 N                                       1.3782302
     9   7 N       10   1 H                                       1.0065203 (min)
     9   7 N       11   1 H                                       1.0071600
     2   6 C       12   1 H                                       1.0784373
     1   6 C       13   1 H                                       1.0791097
     3   6 C       14   8 O                                       1.3806313
    14   8 O       15   6 C                                       1.4103425
    15   6 C       16   1 H                                       1.0880889
    15   6 C       17   1 H                                       1.0940449
    15   6 C       18   1 H                                       1.0936666

 * 5 distinct bonds (by element types)

   Z      Z             #   av. dist./Å        max./Å        min./Å
   1 H    6 C           7     1.0846740     1.0940449     1.0784373
   6 C    6 C           6     1.3896586     1.4115430     1.3801862
   1 H    7 N           2     1.0068402     1.0071600     1.0065203
   6 C    7 N           1     1.3782302     1.3782302     1.3782302
   6 C    8 O           2     1.3954869     1.4103425     1.3806313

           -------------------------------------------------
          |               Frequency Printout                |
           -------------------------------------------------
 projected vibrational frequencies (cm⁻¹)
eigval :       -0.00    -0.00    -0.00     0.00     0.00     0.00
eigval :       81.37   160.44   223.51   232.26   287.85   322.83
eigval :      359.36   433.20   472.55   493.01   523.20   554.38
eigval :      564.89   669.06   770.67   771.47   833.21   850.68
eigval :      881.64   909.46  1017.85  1041.66  1098.61  1118.37
eigval :     1129.19  1150.23  1177.27  1200.16  1267.77  1295.93
eigval :     1361.00  1393.61  1440.93  1458.32  1460.88  1478.59
eigval :     1505.55  1583.32  1595.01  2932.69  2949.07  3028.47
eigval :     3071.97  3077.96  3089.20  3103.04  3464.57  3523.78
 reduced masses (amu)
   1: 10.86   2: 11.81   3: 11.92   4: 11.21   5: 11.72   6: 10.83   7:  9.87   8: 10.66
   9: 10.03  10:  3.73  11:  9.25  12: 10.01  13:  2.12  14:  8.98  15: 12.26  16:  9.97
  17:  9.60  18:  5.76  19: 10.98  20: 11.83  21:  6.72  22:  7.99  23: 10.93  24:  3.29
  25:  3.86  26:  2.99  27:  6.01  28: 10.85  29:  6.02  30:  3.72  31:  7.52  32:  6.56
  33:  2.44  34:  5.63  35:  4.26  36:  8.79  37: 10.68  38:  2.52  39:  6.00  40:  6.83
  41:  1.56  42:  1.66  43: 10.26  44: 11.46  45: 11.54  46:  1.94  47:  1.46  48:  1.69
  49:  1.75  50:  1.81  51:  1.87  52:  1.87  53:  1.45  54:  2.17
 IR intensities (km·mol⁻¹)
   1:  0.47   2:  0.05   3:  0.10   4:  0.08   5:  0.04   6:  0.20   7:  6.34   8:  5.32
   9:  6.16  10:  0.92  11:  2.12  12:  3.45  13: 37.80  14:  8.96  15: 10.77  16:  4.12
  17: 54.43  18:460.80  19: 25.07  20:  4.60  21: 51.18  22: 66.15  23:  4.22  24:  0.38
  25:  2.81  26:  0.06  27: 15.38  28: 32.98  29:  0.04  30:  3.25  31:174.68  32: 96.44
  33: 43.33  34:146.01  35: 15.35  36:238.21  37: 13.94  38:  1.31  39:  8.77  40: 32.92
  41:  6.17  42: 19.92  43:396.36  44: 10.78  45:156.79  46: 56.36  47: 53.54  48: 24.00
  49: 14.51  50:114.59  51:181.28  52: 84.43  53: 25.14  54: 23.67
 Raman intensities (amu)
   1:  0.00   2:  0.00   3:  0.00   4:  0.00   5:  0.00   6:  0.00   7:  0.00   8:  0.00
   9:  0.00  10:  0.00  11:  0.00  12:  0.00  13:  0.00  14:  0.00  15:  0.00  16:  0.00
  17:  0.00  18:  0.00  19:  0.00  20:  0.00  21:  0.00  22:  0.00  23:  0.00  24:  0.00
  25:  0.00  26:  0.00  27:  0.00  28:  0.00  29:  0.00  30:  0.00  31:  0.00  32:  0.00
  33:  0.00  34:  0.00  35:  0.00  36:  0.00  37:  0.00  38:  0.00  39:  0.00  40:  0.00
  41:  0.00  42:  0.00  43:  0.00  44:  0.00  45:  0.00  46:  0.00  47:  0.00  48:  0.00
  49:  0.00  50:  0.00  51:  0.00  52:  0.00  53:  0.00  54:  0.00
 output can be read by thermo (or use thermo option).
 writing <g98.out> molden fake output.
 recommended (thermochemical) frequency scaling factor: 1.0
           -------------------------------------------------
          |             Thermodynamic Functions             |
           -------------------------------------------------

Molecule has no symmetry elements
It seems to be the C1 point group
c1  symmetry found (for desy threshold:  0.10E+00) used in thermo

          ...................................................
          :                      SETUP                      :
          :.................................................:
          :  # frequencies                          48      :
          :  # imaginary freq.                       0      :
          :  linear?                             false      :
          :  only rotor calc.                    false      :
          :  symmetry                               c1      :
          :  rotational number                       1      :
          :  scaling factor                  1.0000000      :
          :  rotor cutoff                   50.0000000 cm⁻¹ :
          :  imag. cutoff                  -20.0000000 cm⁻¹ :
          :.................................................:

    mode    ω/cm⁻¹     T·S(HO)/kcal·mol⁻¹    T·S(FR)/kcal·mol⁻¹   T·S(vib)
   ------------------------------------------------------------------------
       1     81.37    -1.15015 ( 87.52%)    -0.91212 ( 12.48%)    -1.12044
       2    160.44    -0.75866 ( 99.07%)    -0.71107 (  0.93%)    -0.75822
       3    223.51    -0.57557 ( 99.75%)    -0.61289 (  0.25%)    -0.57567
       4    232.26    -0.55498 ( 99.79%)    -0.60151 (  0.21%)    -0.55508
       5    287.85    -0.44322 ( 99.91%)    -0.53795 (  0.09%)    -0.44331
   ------------------------------------------------------------------------

   temp. (K)  partition function   enthalpy   heat capacity  entropy
                                   cal/mol     cal/K/mol   cal/K/mol   J/K/mol
 298.15  VIB   56.3                 3609.007     27.444     20.016
         ROT  0.436E+06              888.752      2.981     28.785
         INT  0.245E+08             4497.760     30.425     48.801
         TR   0.132E+28             1481.254      4.968     40.320
         TOT                        5979.0136    35.3928    89.1213   372.8836

       T/K    H(0)-H(T)+PV         H(T)/Eh          T*S/Eh         G(T)/Eh
   ------------------------------------------------------------------------
    298.15    0.952816E-02    0.153987E+00    0.423444E-01    0.111642E+00
   ------------------------------------------------------------------------

         :::::::::::::::::::::::::::::::::::::::::::::::::::::
         ::                  THERMODYNAMIC                  ::
         :::::::::::::::::::::::::::::::::::::::::::::::::::::
         :: total free energy         -26.443461315218 Eh   ::
         ::.................................................::
         :: total energy              -26.555103768463 Eh   ::
         :: zero point energy           0.144458701219 Eh   ::
         :: G(RRHO) w/o ZPVE           -0.032816247974 Eh   ::
         :: G(RRHO) contrib.            0.111642453244 Eh   ::
         :::::::::::::::::::::::::::::::::::::::::::::::::::::

optimized geometry written to: xtbopt.xyz


           -------------------------------------------------
          | TOTAL ENERGY              -26.555103768463 Eh   |
          | TOTAL ENTHALPY            -26.401116902604 Eh   |
          | TOTAL FREE ENERGY         -26.443461315218 Eh   |
          | GRADIENT NORM               0.000337387892 Eh/α |
          | HOMO-LUMO GAP               3.786179244414 eV   |
           -------------------------------------------------

------------------------------------------------------------------------
 * finished run on 2021/11/15 at 09:36:18.502     
------------------------------------------------------------------------
 total:
 * wall-time:     0 d,  0 h,  0 min,  1.004 sec
 *  cpu-time:     0 d,  0 h,  0 min,  0.953 sec
 * ratio c/w:     0.949 speedup
 SCF:
 * wall-time:     0 d,  0 h,  0 min,  0.011 sec
 *  cpu-time:     0 d,  0 h,  0 min,  0.016 sec
 * ratio c/w:     1.387 speedup
 ANC optimizer:
 * wall-time:     0 d,  0 h,  0 min,  0.070 sec
 *  cpu-time:     0 d,  0 h,  0 min,  0.078 sec
 * ratio c/w:     1.123 speedup
 analytical hessian:
 * wall-time:     0 d,  0 h,  0 min,  0.885 sec
 *  cpu-time:     0 d,  0 h,  0 min,  0.844 sec
 * ratio c/w:     0.953 speedup

