 Entering Gaussian System
 *********************************************
 Gaussian 98:
 frequency output generated by the xtb code
 *********************************************
                         Standard orientation:
 --------------------------------------------------------------------
  Center     Atomic     Atomic              Coordinates (Angstroms)
  Number     Number      Type              X           Y           Z
 --------------------------------------------------------------------
    1          6             0        1.327018   -1.694204    0.003677
    2          6             0       -0.028968   -1.388979    0.001162
    3          6             0       -0.446721   -0.072424   -0.008271
    4          6             0        0.501873    0.972845   -0.014332
    5          6             0        1.852366    0.642049   -0.020593
    6          6             0        2.263199   -0.680148   -0.009309
    7          1             0        3.317276   -0.913059   -0.013127
    8          1             0        2.582395    1.437695   -0.030870
    9          7             0        0.075837    2.281702    0.055698
   10          1             0        0.724104    2.973401   -0.282512
   11          1             0       -0.886599    2.424515   -0.204477
   12          1             0       -0.747533   -2.193142    0.004702
   13          1             0        1.637282   -2.727707    0.012932
   14          8             0       -1.764506    0.338913   -0.027925
   15          6             0       -2.773095   -0.646893   -0.028793
   16          1             0       -3.712254   -0.097648   -0.044519
   17          1             0       -2.705494   -1.284180   -0.915489
   18          1             0       -2.724990   -1.264630    0.872425
 --------------------------------------------------------------------
     1 basis functions        1 primitive gaussians
     1 alpha electrons        1 beta electrons
 
 Harmonic frequencies (cm**-1), IR intensities (km*mol⁻¹),
 Raman scattering activities (A**4/amu), Raman depolarization ratios,
 reduced masses (AMU), force constants (mDyne/A) and normal coordinates:
                      1                      2                      3
                        a                      a                      a 
 Frequencies --    81.3674               160.4423               223.5083
 Red. masses --     9.8671                10.6612                10.0317
 Frc consts  --     0.0000                 0.0000                 0.0000
 IR Inten    --     6.3410                 5.3199                 6.1574
 Raman Activ --     0.0000                 0.0000                 0.0000
 Depolar     --     0.0000                 0.0000                 0.0000
 Atom AN      X      Y      Z        X      Y      Z        X      Y      Z
   1   6     0.00  -0.00  -0.08     0.00  -0.00  -0.22     0.21  -0.01   0.01
   2   6     0.00  -0.00  -0.30     0.00  -0.00  -0.27     0.14  -0.18   0.01
   3   6     0.00  -0.00  -0.25     0.00  -0.00   0.04     0.08  -0.21   0.00
   4   6     0.00  -0.00  -0.02    -0.00  -0.00  -0.02    -0.01  -0.13  -0.00
   5   6     0.00   0.00   0.24     0.00   0.00   0.29     0.02   0.06  -0.01
   6   6     0.00   0.00   0.21     0.00   0.00   0.24     0.11   0.08  -0.00
   7   1     0.00   0.00   0.12     0.00   0.00   0.14     0.04   0.05  -0.00
   8   1     0.00   0.00   0.14     0.00   0.00   0.13    -0.02   0.04  -0.01
   9   7    -0.01  -0.01  -0.01    -0.01   0.02  -0.46    -0.39  -0.27  -0.01
  10   1     0.02   0.01   0.05     0.02  -0.02  -0.14    -0.16  -0.01   0.01
  11   1     0.01   0.01  -0.05     0.01  -0.01  -0.17    -0.12  -0.15   0.00
  12   1     0.00  -0.00  -0.15     0.00  -0.00  -0.14     0.05  -0.06   0.00
  13   1     0.00  -0.00  -0.04     0.00  -0.00  -0.13     0.10   0.01   0.01
  14   8     0.00  -0.00  -0.45    -0.00   0.00   0.51     0.20   0.06   0.01
  15   6    -0.01   0.01   0.52     0.00   0.00  -0.03    -0.24   0.50  -0.01
  16   1    -0.00   0.00   0.24    -0.00   0.00   0.16     0.00   0.26  -0.00
  17   1    -0.15  -0.09   0.20    -0.05   0.18  -0.14    -0.15   0.13  -0.00
  18   1     0.14   0.10   0.21     0.05  -0.18  -0.13    -0.15   0.13  -0.00
                      4                      5                      6
                        a                      a                      a 
 Frequencies --   232.2596               287.8487               322.8298
 Red. masses --     3.7311                 9.2454                10.0061
 Frc consts  --     0.0000                 0.0000                 0.0000
 IR Inten    --     0.9170                 2.1180                 3.4540
 Raman Activ --     0.0000                 0.0000                 0.0000
 Depolar     --     0.0000                 0.0000                 0.0000
 Atom AN      X      Y      Z        X      Y      Z        X      Y      Z
   1   6    -0.00   0.00   0.29    -0.00  -0.01  -0.19    -0.20  -0.09   0.00
   2   6    -0.00   0.00  -0.03    -0.00  -0.00   0.37    -0.16   0.02  -0.02
   3   6    -0.00   0.00  -0.15     0.00   0.00   0.28     0.11   0.08  -0.01
   4   6     0.00   0.00  -0.13     0.00   0.00   0.30     0.08   0.06  -0.01
   5   6    -0.00  -0.00  -0.27     0.00  -0.00   0.29     0.05  -0.03  -0.00
   6   6    -0.00   0.00   0.07    -0.00  -0.01  -0.30    -0.16  -0.13   0.01
   7   1    -0.00   0.00   0.05    -0.00  -0.00  -0.23    -0.05  -0.07   0.01
   8   1     0.00  -0.00  -0.12     0.00  -0.00   0.09     0.05  -0.04  -0.00
   9   7     0.01  -0.02   0.20    -0.02   0.03  -0.18    -0.45  -0.11   0.01
  10   1    -0.01   0.02   0.08    -0.00  -0.03  -0.13    -0.25   0.06  -0.07
  11   1    -0.01   0.01   0.10     0.00  -0.03  -0.09    -0.16  -0.19   0.07
  12   1    -0.00   0.00  -0.04    -0.00   0.00   0.12    -0.06   0.03  -0.01
  13   1    -0.00   0.00   0.17    -0.00  -0.00  -0.16    -0.07  -0.03   0.00
  14   8    -0.00   0.00  -0.03     0.02  -0.00  -0.37     0.23   0.27   0.00
  15   6     0.00  -0.00  -0.04     0.01   0.00  -0.04     0.50  -0.02   0.01
  16   1    -0.01   0.00   0.48    -0.00   0.00   0.25     0.09  -0.10  -0.00
  17   1    -0.28   0.30  -0.25    -0.17   0.12  -0.11     0.21  -0.00   0.01
  18   1     0.28  -0.31  -0.24     0.18  -0.11  -0.10     0.20   0.00   0.01
                      7                      8                      9
                        a                      a                      a 
 Frequencies --   359.3643               433.2046               472.5496
 Red. masses --     2.1167                 8.9771                12.2600
 Frc consts  --     0.0000                 0.0000                 0.0000
 IR Inten    --    37.8006                 8.9560                10.7716
 Raman Activ --     0.0000                 0.0000                 0.0000
 Depolar     --     0.0000                 0.0000                 0.0000
 Atom AN      X      Y      Z        X      Y      Z        X      Y      Z
   1   6     0.02   0.00   0.00     0.00  -0.03   0.13     0.00  -0.32   0.01
   2   6     0.02   0.00  -0.11     0.00  -0.04  -0.34     0.08  -0.15   0.03
   3   6    -0.00   0.01   0.08     0.01  -0.03   0.46     0.25  -0.07  -0.10
   4   6     0.01  -0.00   0.08    -0.04   0.01   0.46    -0.12   0.30  -0.06
   5   6     0.01  -0.01  -0.03    -0.06   0.00  -0.33    -0.22  -0.00   0.04
   6   6     0.03   0.00   0.09    -0.04   0.01   0.10    -0.28  -0.06  -0.03
   7   1     0.01   0.00   0.04    -0.01   0.01  -0.01    -0.07   0.04  -0.00
   8   1    -0.00   0.00  -0.04    -0.01  -0.00  -0.32     0.00  -0.06   0.04
   9   7     0.16   0.10   0.05    -0.04   0.07  -0.07    -0.06   0.47   0.09
  10   1    -0.23  -0.07  -0.72     0.08  -0.05  -0.00     0.01   0.06  -0.08
  11   1    -0.12  -0.11   0.54     0.05   0.01  -0.27     0.01   0.14  -0.09
  12   1     0.00   0.00  -0.10    -0.00  -0.01  -0.31    -0.05   0.02   0.04
  13   1     0.00   0.00  -0.01     0.01  -0.01   0.01     0.04  -0.08   0.02
  14   8    -0.04  -0.05  -0.06     0.06  -0.01  -0.13     0.34  -0.31   0.04
  15   6    -0.09  -0.01  -0.00     0.04   0.02  -0.00     0.01   0.06   0.00
  16   1    -0.02   0.02  -0.01     0.02   0.01  -0.02     0.07   0.14  -0.00
  17   1    -0.04  -0.01   0.01     0.00  -0.02   0.02    -0.08   0.02  -0.00
  18   1    -0.03   0.01   0.01     0.02   0.03   0.02    -0.08   0.01  -0.00
                     10                     11                     12
                        a                      a                      a 
 Frequencies --   493.0145               523.1984               554.3847
 Red. masses --     9.9656                 9.6031                 5.7596
 Frc consts  --     0.0000                 0.0000                 0.0000
 IR Inten    --     4.1231                54.4331               460.7982
 Raman Activ --     0.0000                 0.0000                 0.0000
 Depolar     --     0.0000                 0.0000                 0.0000
 Atom AN      X      Y      Z        X      Y      Z        X      Y      Z
   1   6    -0.02  -0.07   0.02    -0.01  -0.03  -0.45    -0.07  -0.02   0.17
   2   6     0.08   0.31  -0.03    -0.00  -0.01   0.24    -0.07  -0.07  -0.12
   3   6     0.12   0.28   0.04     0.03  -0.01   0.38     0.10  -0.05   0.05
   4   6     0.28   0.21   0.04    -0.01   0.04  -0.28     0.02   0.09   0.14
   5   6     0.29  -0.13  -0.02    -0.02   0.02  -0.25     0.03   0.12   0.11
   6   6     0.15  -0.24  -0.00    -0.05   0.01   0.44    -0.16   0.07  -0.14
   7   1     0.03  -0.11  -0.01    -0.01   0.01   0.24    -0.05   0.01  -0.10
   8   1     0.14  -0.09  -0.03     0.00  -0.00  -0.10     0.03   0.01  -0.01
   9   7    -0.26   0.07  -0.03     0.02  -0.03   0.00     0.11  -0.13  -0.41
  10   1    -0.17   0.17   0.11     0.00   0.08   0.19     0.03   0.19   0.41
  11   1    -0.08  -0.15  -0.05    -0.03   0.07   0.20    -0.11   0.14   0.59
  12   1    -0.03   0.14  -0.03    -0.01   0.00   0.07    -0.04  -0.00  -0.10
  13   1    -0.09  -0.05   0.00     0.00  -0.01  -0.25     0.02   0.01   0.05
  14   8    -0.13  -0.24  -0.00     0.04  -0.04  -0.16     0.08  -0.11  -0.00
  15   6    -0.32  -0.13  -0.00     0.00   0.00  -0.02    -0.01  -0.00   0.00
  16   1    -0.04   0.05  -0.00     0.01   0.01   0.03     0.02   0.03  -0.01
  17   1    -0.15  -0.04  -0.00    -0.04   0.00  -0.01    -0.03  -0.01   0.00
  18   1    -0.15  -0.04   0.00     0.02  -0.00  -0.01    -0.03   0.00   0.00
                     13                     14                     15
                        a                      a                      a 
 Frequencies --   564.8887               669.0594               770.6677
 Red. masses --    10.9821                11.8253                 6.7183
 Frc consts  --     0.0000                 0.0000                 0.0000
 IR Inten    --    25.0693                 4.5952                51.1802
 Raman Activ --     0.0000                 0.0000                 0.0000
 Depolar     --     0.0000                 0.0000                 0.0000
 Atom AN      X      Y      Z        X      Y      Z        X      Y      Z
   1   6     0.32  -0.27   0.03    -0.00   0.01   0.24    -0.09   0.22   0.15
   2   6     0.35   0.14  -0.02    -0.00   0.00  -0.28    -0.02   0.25   0.15
   3   6    -0.13   0.07   0.02    -0.01   0.01   0.57    -0.04   0.08  -0.14
   4   6    -0.24   0.08   0.02    -0.01  -0.02  -0.60    -0.11  -0.08  -0.13
   5   6    -0.32  -0.34   0.02    -0.01  -0.01   0.27    -0.20  -0.16   0.13
   6   6     0.21  -0.21  -0.02     0.01  -0.00  -0.25     0.12  -0.03   0.13
   7   1     0.09   0.07  -0.02     0.00  -0.00  -0.02     0.03  -0.00  -0.34
   8   1    -0.09  -0.09  -0.00    -0.01   0.00   0.11    -0.10  -0.00  -0.27
   9   7    -0.09   0.11  -0.11     0.00   0.00   0.12     0.01  -0.11   0.03
  10   1    -0.01   0.07   0.11    -0.02   0.00  -0.01     0.02  -0.05  -0.00
  11   1    -0.06   0.10   0.18     0.02   0.01  -0.04     0.01   0.02   0.02
  12   1     0.11   0.02  -0.02     0.00  -0.00  -0.07    -0.01   0.08  -0.32
  13   1     0.02  -0.10   0.01    -0.00   0.00   0.04    -0.11   0.03  -0.41
  14   8    -0.18   0.28  -0.01     0.01  -0.01  -0.08     0.24  -0.22   0.04
  15   6     0.08   0.06   0.00     0.01   0.00  -0.01     0.11   0.04   0.00
  16   1    -0.04  -0.08  -0.00     0.00   0.00   0.00     0.09   0.12  -0.02
  17   1     0.09   0.02   0.00    -0.01  -0.00  -0.00    -0.04  -0.00   0.00
  18   1     0.09   0.02  -0.00     0.01   0.01   0.00    -0.05   0.01   0.01
                     16                     17                     18
                        a                      a                      a 
 Frequencies --   771.4748               833.2126               850.6804
 Red. masses --     7.9856                10.9298                 3.2946
 Frc consts  --     0.0000                 0.0000                 0.0000
 IR Inten    --    66.1457                 4.2151                 0.3770
 Raman Activ --     0.0000                 0.0000                 0.0000
 Depolar     --     0.0000                 0.0000                 0.0000
 Atom AN      X      Y      Z        X      Y      Z        X      Y      Z
   1   6     0.11  -0.25   0.14    -0.08   0.32  -0.01    -0.00   0.00   0.16
   2   6     0.03  -0.30   0.12    -0.30  -0.35  -0.00    -0.01  -0.01   0.25
   3   6     0.04  -0.09  -0.09    -0.09  -0.20   0.00    -0.00  -0.01   0.01
   4   6     0.13   0.09  -0.13    -0.04   0.08   0.00     0.00   0.00   0.03
   5   6     0.23   0.19   0.11     0.10  -0.17   0.01     0.01  -0.00  -0.30
   6   6    -0.14   0.04   0.11     0.48  -0.15   0.00     0.01  -0.01  -0.16
   7   1    -0.04  -0.00  -0.29     0.11  -0.14  -0.00     0.00  -0.00   0.24
   8   1     0.12  -0.00  -0.24     0.01  -0.02  -0.02    -0.00   0.01   0.63
   9   7    -0.01   0.13   0.05    -0.14   0.42  -0.04    -0.01   0.01  -0.01
  10   1    -0.04   0.07   0.00    -0.04   0.14   0.06     0.00   0.00   0.01
  11   1     0.00  -0.02  -0.05    -0.05   0.15   0.06    -0.00   0.01  -0.01
  12   1     0.02  -0.10  -0.27     0.02  -0.19   0.01     0.00  -0.01  -0.54
  13   1     0.13  -0.04  -0.35    -0.03   0.08   0.01    -0.00  -0.00  -0.22
  14   8    -0.28   0.26   0.02     0.02  -0.01  -0.00    -0.00   0.00   0.01
  15   6    -0.13  -0.05   0.00     0.03   0.03   0.00     0.00   0.00  -0.00
  16   1    -0.11  -0.14  -0.01    -0.00  -0.01   0.00    -0.00  -0.00  -0.02
  17   1     0.06  -0.01   0.01     0.02   0.01   0.00    -0.00  -0.01   0.00
  18   1     0.05  -0.00   0.00     0.02   0.01  -0.00     0.00   0.01   0.00
                     19                     20                     21
                        a                      a                      a 
 Frequencies --   881.6447               909.4570              1017.8498
 Red. masses --     3.8566                 2.9948                 6.0069
 Frc consts  --     0.0000                 0.0000                 0.0000
 IR Inten    --     2.8112                 0.0593                15.3814
 Raman Activ --     0.0000                 0.0000                 0.0000
 Depolar     --     0.0000                 0.0000                 0.0000
 Atom AN      X      Y      Z        X      Y      Z        X      Y      Z
   1   6    -0.00   0.00   0.28    -0.00  -0.01  -0.20    -0.02  -0.17   0.00
   2   6    -0.00  -0.00  -0.30    -0.00  -0.00   0.02     0.09   0.12  -0.00
   3   6     0.00   0.00   0.03    -0.00   0.00   0.08    -0.13   0.01  -0.00
   4   6     0.00   0.00   0.08     0.00  -0.00  -0.07    -0.13  -0.09  -0.01
   5   6     0.00  -0.00  -0.24     0.00  -0.00  -0.14     0.35   0.23   0.00
   6   6     0.00   0.00   0.16     0.00   0.00   0.33     0.06  -0.07   0.00
   7   1    -0.00  -0.00  -0.25    -0.00  -0.01  -0.69    -0.01  -0.17  -0.00
   8   1    -0.00   0.01   0.35    -0.00   0.01   0.35     0.13   0.04  -0.00
   9   7    -0.00   0.00  -0.02     0.00   0.00  -0.00    -0.31   0.00   0.01
  10   1     0.00  -0.00  -0.01    -0.00   0.00  -0.00     0.26  -0.36  -0.10
  11   1    -0.00  -0.00   0.01    -0.00   0.00   0.00    -0.02   0.52   0.12
  12   1    -0.00   0.00   0.54     0.00  -0.00  -0.16    -0.00   0.05   0.00
  13   1    -0.00  -0.01  -0.51     0.00   0.00   0.45    -0.11  -0.08   0.00
  14   8     0.00  -0.00  -0.02    -0.00   0.00   0.00    -0.10  -0.11  -0.00
  15   6    -0.00   0.00   0.00     0.00   0.00  -0.00     0.16   0.09   0.00
  16   1    -0.00   0.00   0.02    -0.00  -0.00  -0.01     0.07   0.07  -0.00
  17   1     0.00   0.01  -0.01    -0.00  -0.00   0.00    -0.01   0.01  -0.00
  18   1    -0.00  -0.01  -0.01     0.00   0.00   0.00    -0.02   0.01  -0.00
                     22                     23                     24
                        a                      a                      a 
 Frequencies --  1041.6611              1098.6149              1118.3677
 Red. masses --    10.8523                 6.0203                 3.7173
 Frc consts  --     0.0000                 0.0000                 0.0000
 IR Inten    --    32.9824                 0.0358                 3.2524
 Raman Activ --     0.0000                 0.0000                 0.0000
 Depolar     --     0.0000                 0.0000                 0.0000
 Atom AN      X      Y      Z        X      Y      Z        X      Y      Z
   1   6    -0.06   0.09  -0.00    -0.03   0.38  -0.00     0.00   0.00  -0.00
   2   6    -0.02  -0.02   0.00     0.29   0.08  -0.00    -0.01  -0.00   0.00
   3   6     0.33   0.03   0.00    -0.05  -0.09   0.00     0.01   0.00   0.00
   4   6    -0.04   0.02  -0.01     0.02   0.00  -0.00     0.00   0.00  -0.00
   5   6    -0.08  -0.07   0.00     0.02  -0.21  -0.00    -0.01  -0.01   0.00
   6   6     0.07  -0.00   0.00    -0.38  -0.03   0.00     0.00   0.00  -0.00
   7   1     0.02   0.01  -0.00    -0.16  -0.21   0.00     0.00   0.01  -0.00
   8   1    -0.03  -0.02   0.00     0.31  -0.35   0.01    -0.00  -0.00  -0.00
   9   7    -0.15  -0.10   0.00    -0.05   0.03  -0.00    -0.00  -0.01   0.00
  10   1     0.17  -0.24  -0.06     0.03  -0.04  -0.01     0.00  -0.00  -0.00
  11   1    -0.01   0.24   0.06    -0.01   0.06   0.02     0.00   0.00  -0.00
  12   1    -0.07   0.06   0.00     0.37  -0.23   0.00    -0.01   0.00  -0.02
  13   1    -0.03   0.02   0.00     0.10   0.15  -0.00     0.01   0.00   0.00
  14   8     0.38   0.39  -0.00     0.02  -0.05  -0.00    -0.01  -0.00  -0.22
  15   6    -0.45  -0.34  -0.00    -0.06   0.09   0.00    -0.00   0.01   0.42
  16   1    -0.16  -0.17   0.00    -0.07  -0.08  -0.00     0.00  -0.00  -0.22
  17   1     0.01  -0.05  -0.00     0.09   0.01   0.02     0.40   0.41  -0.17
  18   1     0.01  -0.04   0.01     0.08   0.00  -0.02    -0.40  -0.42  -0.17
                     25                     26                     27
                        a                      a                      a 
 Frequencies --  1129.1884              1150.2255              1177.2727
 Red. masses --     7.5189                 6.5629                 2.4387
 Frc consts  --     0.0000                 0.0000                 0.0000
 IR Inten    --   174.6786                96.4399                43.3340
 Raman Activ --     0.0000                 0.0000                 0.0000
 Depolar     --     0.0000                 0.0000                 0.0000
 Atom AN      X      Y      Z        X      Y      Z        X      Y      Z
   1   6    -0.03  -0.12  -0.00     0.07  -0.03   0.00     0.02  -0.08   0.00
   2   6     0.15   0.17  -0.00     0.01   0.00  -0.00    -0.14   0.04  -0.00
   3   6    -0.33  -0.15  -0.00    -0.29   0.03  -0.00    -0.22  -0.06  -0.00
   4   6    -0.04  -0.18   0.01     0.00  -0.12   0.01     0.09   0.01   0.00
   5   6     0.09   0.26  -0.00     0.06   0.00  -0.00     0.04   0.03  -0.00
   6   6    -0.03  -0.10   0.00    -0.09  -0.01   0.00     0.03   0.07   0.00
   7   1    -0.05  -0.24   0.00    -0.03  -0.03   0.00     0.16   0.69  -0.01
   8   1    -0.18   0.26  -0.01     0.06  -0.04   0.00     0.33  -0.29   0.01
   9   7     0.08   0.16  -0.01    -0.00   0.09  -0.01    -0.02   0.00  -0.00
  10   1    -0.13   0.21   0.05    -0.06   0.09   0.02     0.01  -0.02  -0.01
  11   1     0.00  -0.09  -0.02    -0.00   0.01   0.00    -0.00   0.03   0.01
  12   1     0.19  -0.09   0.00     0.12  -0.11   0.00     0.11  -0.12   0.00
  13   1    -0.31  -0.12   0.00     0.13   0.03  -0.00    -0.37  -0.14   0.00
  14   8     0.37   0.01  -0.00     0.15   0.34  -0.00     0.14  -0.04   0.00
  15   6    -0.22  -0.02   0.01     0.08  -0.43   0.01    -0.06   0.00  -0.00
  16   1    -0.13  -0.15  -0.01     0.33   0.42  -0.00    -0.02  -0.02  -0.00
  17   1     0.14   0.01   0.01    -0.30  -0.05  -0.04     0.04   0.00   0.01
  18   1     0.12  -0.01  -0.02    -0.31  -0.06   0.04     0.04  -0.00  -0.01
                     28                     29                     30
                        a                      a                      a 
 Frequencies --  1200.1555              1267.7668              1295.9340
 Red. masses --     5.6266                 4.2584                 8.7897
 Frc consts  --     0.0000                 0.0000                 0.0000
 IR Inten    --   146.0144                15.3543               238.2121
 Raman Activ --     0.0000                 0.0000                 0.0000
 Depolar     --     0.0000                 0.0000                 0.0000
 Atom AN      X      Y      Z        X      Y      Z        X      Y      Z
   1   6    -0.17   0.08  -0.00    -0.05  -0.11   0.00    -0.26   0.06  -0.00
   2   6     0.21  -0.13   0.00    -0.19   0.02  -0.00     0.26  -0.02  -0.00
   3   6     0.39  -0.05   0.00    -0.04   0.31  -0.00     0.14   0.00   0.00
   4   6    -0.03   0.13  -0.00     0.25   0.14  -0.00     0.06  -0.48   0.01
   5   6    -0.08   0.04   0.00     0.00  -0.06   0.00     0.26  -0.32  -0.00
   6   6     0.02   0.02  -0.00    -0.05  -0.15   0.00    -0.17   0.14  -0.00
   7   1    -0.01  -0.05   0.00     0.04   0.19  -0.00     0.01   0.35  -0.00
   8   1    -0.12   0.10  -0.00    -0.33   0.29  -0.01    -0.22   0.17  -0.00
   9   7     0.03  -0.07   0.01    -0.08  -0.08   0.00    -0.10   0.25  -0.01
  10   1     0.03  -0.04  -0.00     0.08  -0.13  -0.03    -0.12   0.17   0.02
  11   1     0.01  -0.06  -0.01    -0.01   0.11   0.03    -0.01   0.21  -0.00
  12   1     0.28  -0.23   0.00     0.43  -0.43   0.00    -0.06   0.12  -0.00
  13   1    -0.61  -0.14   0.00     0.26   0.05  -0.00     0.02   0.05   0.00
  14   8    -0.28   0.11  -0.00     0.03  -0.11   0.00    -0.08   0.01  -0.00
  15   6     0.11  -0.05   0.00    -0.05   0.05  -0.00     0.03   0.03  -0.00
  16   1     0.11   0.14   0.00    -0.00   0.03   0.00    -0.03  -0.04   0.00
  17   1    -0.12  -0.02  -0.01     0.06  -0.01   0.02    -0.03   0.00  -0.00
  18   1    -0.12  -0.02   0.00     0.06  -0.01  -0.02    -0.02   0.00   0.00
                     31                     32                     33
                        a                      a                      a 
 Frequencies --  1361.0008              1393.6070              1440.9288
 Red. masses --    10.6759                 2.5217                 5.9992
 Frc consts  --     0.0000                 0.0000                 0.0000
 IR Inten    --    13.9426                 1.3057                 8.7745
 Raman Activ --     0.0000                 0.0000                 0.0000
 Depolar     --     0.0000                 0.0000                 0.0000
 Atom AN      X      Y      Z        X      Y      Z        X      Y      Z
   1   6    -0.33  -0.23   0.00     0.04   0.05  -0.00     0.28  -0.06   0.00
   2   6     0.11  -0.20   0.00     0.03  -0.03   0.00    -0.16  -0.14  -0.00
   3   6     0.00   0.45  -0.00     0.03  -0.04   0.00    -0.01   0.29  -0.00
   4   6    -0.47  -0.03   0.00     0.07  -0.00  -0.00     0.22  -0.15   0.03
   5   6     0.19  -0.07  -0.00    -0.01  -0.03   0.00    -0.19  -0.09  -0.00
   6   6     0.21   0.33  -0.00    -0.04   0.00   0.00    -0.01   0.30  -0.00
   7   1     0.02  -0.08   0.00    -0.01   0.00  -0.00    -0.08  -0.25   0.00
   8   1     0.16  -0.11   0.00    -0.03   0.02  -0.00     0.02  -0.10   0.00
   9   7     0.08  -0.05  -0.01    -0.02   0.01  -0.00     0.00  -0.15   0.02
  10   1    -0.02   0.03   0.03     0.01  -0.01  -0.00    -0.32   0.23  -0.09
  11   1    -0.00  -0.17  -0.01    -0.00   0.02   0.00     0.10   0.47  -0.10
  12   1     0.11  -0.13  -0.00    -0.07   0.06  -0.00    -0.02  -0.06   0.00
  13   1     0.09  -0.01  -0.00    -0.05  -0.00   0.00    -0.20  -0.10   0.00
  14   8     0.11  -0.06   0.00    -0.12  -0.06  -0.00     0.01  -0.05   0.00
  15   6    -0.08   0.00   0.00    -0.25  -0.19   0.00    -0.02   0.05  -0.00
  16   1     0.01   0.03  -0.00     0.27   0.48  -0.00    -0.01  -0.01   0.00
  17   1     0.08   0.01   0.00     0.45   0.23  -0.14     0.02  -0.05   0.04
  18   1     0.08   0.01  -0.00     0.45   0.23   0.14     0.02  -0.05  -0.04
                     34                     35                     36
                        a                      a                      a 
 Frequencies --  1458.3166              1460.8756              1478.5918
 Red. masses --     6.8278                 1.5561                 1.6572
 Frc consts  --     0.0000                 0.0000                 0.0000
 IR Inten    --    32.9201                 6.1727                19.9226
 Raman Activ --     0.0000                 0.0000                 0.0000
 Depolar     --     0.0000                 0.0000                 0.0000
 Atom AN      X      Y      Z        X      Y      Z        X      Y      Z
   1   6     0.23   0.02  -0.00    -0.01  -0.00  -0.00    -0.01  -0.01   0.00
   2   6     0.01  -0.21   0.00    -0.00   0.01  -0.00     0.00  -0.02  -0.00
   3   6    -0.24   0.19  -0.00     0.01  -0.01   0.00    -0.03   0.06  -0.00
   4   6     0.24   0.01  -0.03    -0.01  -0.00   0.00     0.00   0.04   0.01
   5   6     0.04  -0.28   0.00    -0.00   0.01  -0.00    -0.01   0.00  -0.00
   6   6    -0.13   0.31  -0.00     0.01  -0.01   0.00     0.00   0.00  -0.00
   7   1    -0.09  -0.13   0.00     0.00   0.01   0.00    -0.00  -0.01   0.00
   8   1    -0.13   0.05  -0.00     0.01  -0.00   0.00     0.00  -0.00   0.00
   9   7    -0.13   0.21  -0.03     0.01  -0.01   0.00     0.01  -0.06   0.00
  10   1     0.36  -0.28   0.09    -0.02   0.01  -0.01    -0.05   0.03  -0.02
  11   1    -0.12  -0.33   0.14     0.01   0.02  -0.01     0.02   0.07  -0.02
  12   1    -0.12   0.05  -0.00     0.01  -0.00   0.02     0.05  -0.05   0.00
  13   1    -0.23  -0.08   0.00     0.01   0.00  -0.00    -0.00  -0.00   0.00
  14   8     0.08  -0.04   0.00    -0.00   0.00   0.03     0.03  -0.06   0.00
  15   6     0.02   0.01   0.01    -0.00  -0.00   0.22     0.13  -0.16  -0.00
  16   1    -0.03  -0.05  -0.04     0.01  -0.01  -0.71    -0.14  -0.27   0.02
  17   1    -0.05   0.02  -0.02    -0.45   0.10  -0.10    -0.16   0.50  -0.37
  18   1    -0.01   0.01   0.01     0.45  -0.09  -0.08    -0.19   0.51   0.36
                     37                     38                     39
                        a                      a                      a 
 Frequencies --  1505.5458              1583.3164              1595.0113
 Red. masses --    10.2570                11.4600                11.5363
 Frc consts  --     0.0000                 0.0000                 0.0000
 IR Inten    --   396.3609                10.7809               156.7904
 Raman Activ --     0.0000                 0.0000                 0.0000
 Depolar     --     0.0000                 0.0000                 0.0000
 Atom AN      X      Y      Z        X      Y      Z        X      Y      Z
   1   6    -0.10   0.16  -0.00    -0.51  -0.21   0.00    -0.03   0.20  -0.00
   2   6     0.31  -0.30   0.00     0.26   0.02   0.00     0.25  -0.37   0.00
   3   6    -0.37   0.01  -0.00    -0.18  -0.19   0.00    -0.05   0.45  -0.00
   4   6    -0.03   0.52   0.02     0.49   0.05  -0.00     0.11  -0.28  -0.00
   5   6     0.20  -0.15  -0.00    -0.35   0.07   0.00    -0.26   0.38  -0.00
   6   6    -0.09  -0.09   0.00     0.28   0.25  -0.00    -0.01  -0.44   0.00
   7   1     0.00   0.11  -0.00     0.04  -0.09   0.00     0.04   0.09  -0.00
   8   1    -0.12   0.13  -0.00     0.04  -0.10   0.00     0.10  -0.05   0.00
   9   7     0.07  -0.31   0.03    -0.06   0.01  -0.00    -0.02   0.07  -0.02
  10   1    -0.14   0.04  -0.08     0.04  -0.05  -0.01     0.04  -0.01   0.03
  11   1     0.07   0.18  -0.07    -0.01   0.06   0.02    -0.02  -0.04   0.04
  12   1    -0.18   0.15  -0.00     0.02   0.05  -0.00    -0.11   0.05  -0.00
  13   1    -0.07   0.03   0.00     0.14   0.02  -0.00    -0.02   0.05  -0.00
  14   8     0.10   0.01   0.00    -0.02   0.02  -0.00     0.01  -0.04   0.00
  15   6     0.00   0.00   0.00     0.01  -0.00   0.00    -0.01   0.02  -0.00
  16   1     0.01   0.00  -0.00     0.01   0.01   0.00    -0.01  -0.01   0.00
  17   1    -0.00  -0.04   0.03    -0.00  -0.00   0.00     0.00  -0.01   0.01
  18   1    -0.00  -0.04  -0.03    -0.00  -0.00  -0.00     0.00  -0.01  -0.01
                     40                     41                     42
                        a                      a                      a 
 Frequencies --  2932.6918              2949.0673              3028.4750
 Red. masses --     1.9374                 1.4556                 1.6926
 Frc consts  --     0.0000                 0.0000                 0.0000
 IR Inten    --    56.3640                53.5417                23.9997
 Raman Activ --     0.0000                 0.0000                 0.0000
 Depolar     --     0.0000                 0.0000                 0.0000
 Atom AN      X      Y      Z        X      Y      Z        X      Y      Z
   1   6     0.00  -0.00   0.00    -0.00   0.00   0.00    -0.00   0.00  -0.00
   2   6    -0.00  -0.00  -0.00     0.00   0.00  -0.00    -0.00  -0.00   0.00
   3   6    -0.00   0.00  -0.00     0.00  -0.00  -0.00     0.00   0.00   0.00
   4   6     0.00   0.00   0.00    -0.00   0.00   0.00     0.00   0.00   0.00
   5   6    -0.00   0.00   0.00     0.00  -0.00   0.00    -0.00  -0.00   0.00
   6   6     0.00  -0.00   0.00    -0.00   0.00  -0.00    -0.00   0.00   0.00
   7   1    -0.00   0.00  -0.00     0.00  -0.00  -0.00     0.00  -0.00  -0.00
   8   1    -0.00  -0.00  -0.00     0.00   0.00  -0.00     0.00   0.00  -0.00
   9   7     0.00  -0.00  -0.00     0.00  -0.00  -0.00    -0.00  -0.00  -0.00
  10   1     0.00   0.00   0.00    -0.00   0.00   0.00    -0.00  -0.00   0.00
  11   1    -0.00   0.00   0.00     0.00   0.00   0.00     0.00   0.00   0.00
  12   1     0.00   0.00  -0.00    -0.01  -0.01  -0.00     0.00   0.00  -0.00
  13   1    -0.00   0.00  -0.00     0.00  -0.00   0.00     0.00  -0.00   0.00
  14   8     0.00   0.00   0.01    -0.01  -0.02   0.00    -0.01  -0.00  -0.00
  15   6    -0.01   0.03   0.29     0.04  -0.19   0.05    -0.21   0.13  -0.00
  16   1     0.00   0.00   0.05    -0.02  -0.01   0.01     0.83  -0.49   0.01
  17   1     0.06  -0.46  -0.61    -0.03   0.31   0.49    -0.03   0.03   0.01
  18   1    -0.04   0.34  -0.45    -0.04   0.42  -0.66    -0.03   0.03  -0.02
                     43                     44                     45
                        a                      a                      a 
 Frequencies --  3071.9702              3077.9638              3089.2029
 Red. masses --     1.7498                 1.8134                 1.8715
 Frc consts  --     0.0000                 0.0000                 0.0000
 IR Inten    --    14.5105               114.5901               181.2835
 Raman Activ --     0.0000                 0.0000                 0.0000
 Depolar     --     0.0000                 0.0000                 0.0000
 Atom AN      X      Y      Z        X      Y      Z        X      Y      Z
   1   6     0.02  -0.09   0.00     0.06  -0.19   0.00    -0.03   0.12  -0.00
   2   6     0.01   0.00   0.00     0.03   0.03  -0.00    -0.07  -0.09   0.00
   3   6     0.00   0.00  -0.00     0.00   0.00   0.00    -0.00   0.00   0.00
   4   6     0.00   0.01  -0.00     0.00  -0.01  -0.00     0.00  -0.01  -0.00
   5   6     0.10   0.11  -0.00    -0.12  -0.13   0.00    -0.09  -0.10   0.00
   6   6    -0.19   0.04   0.00    -0.04   0.01   0.00    -0.17   0.04   0.00
   7   1     0.69  -0.15  -0.00     0.13  -0.03  -0.00     0.58  -0.13  -0.00
   8   1    -0.38  -0.41   0.00     0.42   0.46  -0.01     0.31   0.34  -0.00
   9   7    -0.00  -0.00   0.00     0.00   0.00   0.00     0.00   0.00   0.00
  10   1     0.00  -0.00  -0.00    -0.00   0.00   0.00    -0.00   0.00  -0.00
  11   1     0.00  -0.00  -0.00    -0.00   0.00  -0.00    -0.00   0.00  -0.00
  12   1    -0.03  -0.03   0.00    -0.12  -0.13   0.00     0.28   0.31  -0.00
  13   1    -0.10   0.33  -0.00    -0.20   0.67  -0.01     0.12  -0.41   0.00
  14   8     0.00  -0.00   0.00     0.00  -0.00   0.00    -0.00  -0.00  -0.00
  15   6    -0.00  -0.00  -0.00    -0.00   0.00  -0.00     0.00  -0.00   0.00
  16   1     0.00  -0.00   0.00    -0.00  -0.00  -0.00    -0.01   0.00  -0.00
  17   1    -0.00   0.00   0.00     0.00  -0.00  -0.00    -0.00   0.00   0.00
  18   1    -0.00   0.00  -0.00     0.00  -0.00   0.00    -0.00   0.00  -0.00
                     46                     47                     48
                        a                      a                      a 
 Frequencies --  3103.0364              3464.5681              3523.7769
 Red. masses --     1.8737                 1.4488                 2.1661
 Frc consts  --     0.0000                 0.0000                 0.0000
 IR Inten    --    84.4273                25.1391                23.6704
 Raman Activ --     0.0000                 0.0000                 0.0000
 Depolar     --     0.0000                 0.0000                 0.0000
 Atom AN      X      Y      Z        X      Y      Z        X      Y      Z
   1   6     0.03  -0.11   0.00    -0.00   0.00  -0.00    -0.00  -0.00   0.00
   2   6    -0.16  -0.18   0.00     0.00  -0.00  -0.00     0.00  -0.00   0.00
   3   6    -0.01   0.00  -0.00     0.00   0.00  -0.00     0.00  -0.00  -0.00
   4   6     0.00   0.00   0.00     0.00  -0.01   0.00     0.01   0.00  -0.00
   5   6     0.03   0.03  -0.00    -0.00   0.00   0.00    -0.00  -0.00   0.00
   6   6     0.07  -0.01  -0.00     0.00  -0.00  -0.00     0.00   0.00  -0.00
   7   1    -0.22   0.05   0.00    -0.00   0.00   0.00    -0.00  -0.00  -0.00
   8   1    -0.09  -0.09   0.00    -0.00  -0.00   0.00    -0.00  -0.00  -0.00
   9   7    -0.00  -0.00  -0.00     0.06  -0.15   0.09     0.28   0.10  -0.01
  10   1    -0.00  -0.00   0.00     0.46   0.47  -0.21    -0.43  -0.47   0.23
  11   1     0.00  -0.00   0.00    -0.68   0.09  -0.15    -0.64   0.11  -0.17
  12   1     0.57   0.63  -0.00     0.00   0.00   0.00     0.00   0.00  -0.00
  13   1    -0.11   0.35  -0.00    -0.00   0.00   0.00    -0.00   0.00  -0.00
  14   8     0.00  -0.00   0.00     0.00  -0.00  -0.00    -0.00  -0.00  -0.00
  15   6     0.00  -0.00   0.00    -0.00   0.00   0.00     0.00   0.00   0.00
  16   1    -0.00   0.00  -0.00     0.00   0.00  -0.00     0.00   0.00  -0.00
  17   1    -0.00   0.01   0.01     0.00   0.00   0.00     0.00   0.00   0.00
  18   1    -0.00   0.01  -0.01    -0.00  -0.00   0.00     0.00  -0.00   0.00
