      -----------------------------------------------------------      
     |                   =====================                   |     
     |                           x T B                           |     
     |                   =====================                   |     
     |                         S. Grimme                         |     
     |          Mulliken Center for Theoretical Chemistry        |     
     |                    University of Bonn                     |     
      -----------------------------------------------------------      

   * xtb version 6.4.1 (afa7bdf) compiled by 'ehlert@majestix' on 2021-06-10

   xtb is free software: you can redistribute it and/or modify it under
   the terms of the GNU Lesser General Public License as published by
   the Free Software Foundation, either version 3 of the License, or
   (at your option) any later version.
   
   xtb is distributed in the hope that it will be useful,
   but WITHOUT ANY WARRANTY; without even the implied warranty of
   MERCHANTABILITY or FITNESS FOR A PARTICULAR PURPOSE.  See the
   GNU Lesser General Public License for more details.
   
   Cite this work as:
   * C. Bannwarth, E. Caldeweyher, S. Ehlert, A. Hansen, P. Pracht,
     J. Seibert, S. Spicher, S. Grimme, WIREs Comput. Mol. Sci., 2020, 11,
     e01493. DOI: 10.1002/wcms.1493
   
   for GFN2-xTB:
   * C. Bannwarth, S. Ehlert and S. Grimme., J. Chem. Theory Comput., 2019,
     15, 1652-1671. DOI: 10.1021/acs.jctc.8b01176
   for GFN1-xTB:
   * S. Grimme, C. Bannwarth, P. Shushkov, J. Chem. Theory Comput., 2017,
     13, 1989-2009. DOI: 10.1021/acs.jctc.7b00118
   for GFN0-xTB:
   * P. Pracht, E. Caldeweyher, S. Ehlert, S. Grimme, ChemRxiv, 2019, preprint.
     DOI: 10.26434/chemrxiv.8326202.v1
   for GFN-FF:
   * S. Spicher and S. Grimme, Angew. Chem. Int. Ed., 2020, 59, 15665-15673.
     DOI: 10.1002/anie.202004239
   
   for DFT-D4:
   * E. Caldeweyher, C. Bannwarth and S. Grimme, J. Chem. Phys., 2017,
     147, 034112. DOI: 10.1063/1.4993215
   * E. Caldeweyher, S. Ehlert, A. Hansen, H. Neugebauer, S. Spicher,
     C. Bannwarth and S. Grimme, J. Chem. Phys., 2019, 150, 154122.
     DOI: 10.1063/1.5090222
   * E. Caldeweyher, J.-M. Mewes, S. Ehlert and S. Grimme, Phys. Chem. Chem. Phys.
     2020, 22, 8499-8512. DOI: 10.1039/D0CP00502A
   
   for sTDA-xTB:
   * S. Grimme and C. Bannwarth, J. Chem. Phys., 2016, 145, 054103.
     DOI: 10.1063/1.4959605
   
   in the mass-spec context:
   * V. Asgeirsson, C. Bauer and S. Grimme, Chem. Sci., 2017, 8, 4879.
     DOI: 10.1039/c7sc00601b
   * J. Koopman and S. Grimme, ACS Omega 2019, 4, 12, 15120-15133.
     DOI: 10.1021/acsomega.9b02011
   
   for metadynamics refer to:
   * S. Grimme, J. Chem. Theory Comput., 2019, 155, 2847-2862
     DOI: 10.1021/acs.jctc.9b00143
   
   for SPH calculations refer to:
   * S. Spicher and S. Grimme, J. Chem. Theory Comput., 2021, 17, 1701-1714
     DOI: 10.1021/acs.jctc.0c01306
   
   with help from (in alphabetical order)
   P. Atkinson, C. Bannwarth, F. Bohle, G. Brandenburg, E. Caldeweyher
   M. Checinski, S. Dohm, S. Ehlert, S. Ehrlich, I. Gerasimov, J. Koopman
   C. Lavigne, S. Lehtola, F. März, M. Müller, F. Musil, H. Neugebauer
   J. Pisarek, C. Plett, P. Pracht, J. Seibert, P. Shushkov, S. Spicher
   M. Stahn, M. Steiner, T. Strunk, J. Stückrath, T. Rose, and J. Unsleber
   
 * started run on 2021/11/15 at 09:23:10.891     

           -------------------------------------------------
          |                Calculation Setup                |
           -------------------------------------------------

          program call               : xtb 42_3-fluoro-L-tyrosine.xyz --gfn2 --chrg 0 --uhf 0 --alpb water -P 1
          coordinate file            : 42_3-fluoro-L-tyrosine.xyz
          omp threads                :                     1
          number of atoms            :                    24
          number of electrons        :                    76
          charge                     :                     0
          spin                       :                   0.0
          first test random number   :      0.28617142016281

   ID    Z sym.   atoms
    1    8 O      1-3
    2    7 N      4
    3    6 C      5-13
    4    1 H      14-23
    5    9 F      24

           -------------------------------------------------
          |                 G F N 2 - x T B                 |
           -------------------------------------------------

        Reference                      10.1021/acs.jctc.8b01176
      * Hamiltonian:
        H0-scaling (s, p, d)           1.850000    2.230000    2.230000
        zeta-weighting                 0.500000
      * Dispersion:
        s8                             2.700000
        a1                             0.520000
        a2                             5.000000
        s9                             5.000000
      * Repulsion:
        kExp                           1.500000    1.000000
        rExp                           1.000000
      * Coulomb:
        alpha                          2.000000
        third order                    shell-resolved
        anisotropic                    true
        a3                             3.000000
        a5                             4.000000
        cn-shift                       1.200000
        cn-exp                         4.000000
        max-rad                        5.000000

      * Solvation model:               ALPB
        Solvent                        water
        Parameter file                 internal GFN2-xTB/ALPB
        Dielectric constant                8.0200E+01
        Reference state                gsolv [1 M gas/solution]
        Free energy shift                  1.0808E-03 Eh       6.7819E-01 kcal/mol
        Temperature                        2.9815E+02 K
        Density                            1.0000E+00 kg/L
        Solvent mass                       1.8000E+01 g/mol
        Interaction kernel             P16
        Born radius scaling (c1)           1.4744E+00
        Born radii integrator          GBOBC
        Born offset                        0.0000E+00 a0       0.0000E+00 AA
        H-bond correction              true
        Ion screening                  false
        Surface tension                    1.0000E-05 Eh       1.5569E+01 dyn/cm
        Grid points                               230 per atom
q/qsh data taken from xtbrestart
CAMM data taken from xtbrestart

          ...................................................
          :                      SETUP                      :
          :.................................................:
          :  # basis functions                  66          :
          :  # atomic orbitals                  66          :
          :  # shells                           38          :
          :  # electrons                        76          :
          :  max. iterations                   250          :
          :  Hamiltonian                  GFN2-xTB          :
          :  restarted?                       true          :
          :  GBSA solvation                   true          :
          :  PC potential                    false          :
          :  electronic temp.          300.0000000     K    :
          :  accuracy                    1.0000000          :
          :  -> integral cutoff          0.2500000E+02      :
          :  -> integral neglect         0.1000000E-07      :
          :  -> SCF convergence          0.1000000E-05 Eh   :
          :  -> wf. convergence          0.1000000E-03 e    :
          :  Broyden damping             0.4000000          :
          ...................................................

 iter      E             dE          RMSdq      gap      omega  full diag
   1    -44.7283551 -0.447284E+02  0.214E-04    3.84       0.0  T
   2    -44.7283551 -0.286541E-09  0.137E-04    3.84     148.7  T
   3    -44.7283552 -0.107100E-09  0.950E-05    3.84     214.9  T

   *** convergence criteria satisfied after 3 iterations ***

         #    Occupation            Energy/Eh            Energy/eV
      -------------------------------------------------------------
         1        2.0000           -0.8367931             -22.7703
       ...           ...                  ...                  ...
        32        2.0000           -0.4555935             -12.3973
        33        2.0000           -0.4399202             -11.9708
        34        2.0000           -0.4184916             -11.3877
        35        2.0000           -0.4145429             -11.2803
        36        2.0000           -0.4043617             -11.0032
        37        2.0000           -0.3958833             -10.7725
        38        2.0000           -0.3829170             -10.4197 (HOMO)
        39                         -0.2417829              -6.5792 (LUMO)
        40                         -0.2348322              -6.3901
        41                         -0.1944470              -5.2912
        42                         -0.1118592              -3.0438
        43                         -0.0544447              -1.4815
       ...                                ...                  ...
        66                          0.6215804              16.9141
      -------------------------------------------------------------
                  HL-Gap            0.1411341 Eh            3.8405 eV
             Fermi-level           -0.3123499 Eh           -8.4995 eV

 SCC (total)                   0 d,  0 h,  0 min,  0.013 sec
 SCC setup                      ...        0 min,  0.001 sec (  4.453%)
 Dispersion                     ...        0 min,  0.000 sec (  1.504%)
 classical contributions        ...        0 min,  0.000 sec (  0.253%)
 integral evaluation            ...        0 min,  0.003 sec ( 20.894%)
 iterations                     ...        0 min,  0.003 sec ( 26.138%)
 molecular gradient             ...        0 min,  0.006 sec ( 44.474%)
 printout                       ...        0 min,  0.000 sec (  2.096%)

         :::::::::::::::::::::::::::::::::::::::::::::::::::::
         ::                     SUMMARY                     ::
         :::::::::::::::::::::::::::::::::::::::::::::::::::::
         :: total energy             -44.245930239985 Eh    ::
         :: total w/o Gsasa/hb       -44.235859049533 Eh    ::
         :: gradient norm              0.051291535720 Eh/a0 ::
         :: HOMO-LUMO gap              3.840453320204 eV    ::
         ::.................................................::
         :: SCC energy               -44.728355150016 Eh    ::
         :: -> isotropic ES            0.210495691996 Eh    ::
         :: -> anisotropic ES         -0.011850165872 Eh    ::
         :: -> anisotropic XC          0.006374043207 Eh    ::
         :: -> dispersion             -0.020559284061 Eh    ::
         :: -> Gsolv                  -0.077159665640 Eh    ::
         ::    -> Gelec               -0.067088475188 Eh    ::
         ::    -> Gsasa                0.005320755805 Eh    ::
         ::    -> Ghb                 -0.016472705955 Eh    ::
         ::    -> Gshift               0.001080759698 Eh    ::
         :: repulsion energy           0.482360368428 Eh    ::
         :: add. restraining           0.000000000000 Eh    ::
         :: total charge              -0.000000000000 e     ::
         :::::::::::::::::::::::::::::::::::::::::::::::::::::

           -------------------------------------------------
          |                Property Printout                |
           -------------------------------------------------

    * Orbital Energies and Occupations

         #    Occupation            Energy/Eh            Energy/eV
      -------------------------------------------------------------
         1        2.0000           -0.8367931             -22.7703
       ...           ...                  ...                  ...
        26        2.0000           -0.5000126             -13.6060
        27        2.0000           -0.4964192             -13.5083
        28        2.0000           -0.4941389             -13.4462
        29        2.0000           -0.4830109             -13.1434
        30        2.0000           -0.4621907             -12.5768
        31        2.0000           -0.4603776             -12.5275
        32        2.0000           -0.4555935             -12.3973
        33        2.0000           -0.4399202             -11.9708
        34        2.0000           -0.4184916             -11.3877
        35        2.0000           -0.4145429             -11.2803
        36        2.0000           -0.4043617             -11.0032
        37        2.0000           -0.3958833             -10.7725
        38        2.0000           -0.3829170             -10.4197 (HOMO)
        39                         -0.2417829              -6.5792 (LUMO)
        40                         -0.2348322              -6.3901
        41                         -0.1944470              -5.2912
        42                         -0.1118592              -3.0438
        43                         -0.0544447              -1.4815
        44                          0.0289557               0.7879
        45                          0.0438072               1.1921
        46                          0.0547144               1.4889
        47                          0.0692129               1.8834
        48                          0.0957803               2.6063
        49                          0.1088594               2.9622
       ...                                ...                  ...
        66                          0.6215804              16.9141
      -------------------------------------------------------------
                  HL-Gap            0.1411341 Eh            3.8405 eV
             Fermi-level           -0.3123499 Eh           -8.4995 eV

     #   Z          covCN         q      C6AA      α(0)
     1   8 O        0.856    -0.618    26.575     6.912
     2   8 O        1.659    -0.439    21.629     6.278
     3   8 O        0.856    -0.619    26.588     6.913
     4   7 N        3.483    -0.183    24.955     7.419
     5   6 C        3.805    -0.076    21.949     6.670
     6   6 C        3.776    -0.007    20.727     6.487
     7   6 C        2.964     0.007    27.871     8.659
     8   6 C        2.916    -0.062    29.554     8.915
     9   6 C        2.918    -0.052    29.285     8.874
    10   6 C        2.779     0.135    25.038     8.196
    11   6 C        2.916    -0.062    29.546     8.913
    12   6 C        2.686     0.365    20.817     7.467
    13   6 C        2.840     0.131    25.125     8.215
    14   1 H        0.924     0.079     1.989     2.206
    15   1 H        0.924     0.072     2.064     2.247
    16   1 H        0.924     0.089     1.887     2.148
    17   1 H        0.925     0.069     2.096     2.264
    18   1 H        0.925     0.075     2.028     2.227
    19   1 H        0.925     0.079     1.988     2.205
    20   1 H        0.860     0.296     0.725     1.334
    21   1 H        0.857     0.308     0.690     1.301
    22   1 H        0.805     0.374     0.536     1.150
    23   1 H        0.860     0.308     0.691     1.302
    24   9 F        0.787    -0.267    11.952     4.084

 Mol. C6AA /au·bohr⁶  :       6439.187895
 Mol. C8AA /au·bohr⁸  :     150961.457565
 Mol. α(0) /au        :        122.384420


Wiberg/Mayer (AO) data.
largest (>0.10) Wiberg bond orders for each atom

 ---------------------------------------------------------------------------
     #   Z sym  total        # sym  WBO       # sym  WBO       # sym  WBO
 ---------------------------------------------------------------------------
     1   8 O    1.849 --    12 C    1.472     3 O    0.220
     2   8 O    2.090 --    13 C    1.083    22 H    0.842
     3   8 O    1.839 --    12 C    1.538     1 O    0.220
     4   7 N    3.637 --     6 C    0.954    23 H    0.896    20 H    0.895
                            21 H    0.833
     5   6 C    3.986 --     7 C    1.010     6 C    0.982    15 H    0.969
                            14 H    0.955
     6   6 C    3.931 --     5 C    0.982    16 H    0.956     4 N    0.954
                            12 C    0.898
     7   6 C    3.986 --     9 C    1.418     8 C    1.387     5 C    1.010
     8   6 C    3.985 --    10 C    1.431     7 C    1.387    17 H    0.964
                            11 C    0.107
     9   6 C    3.985 --    11 C    1.439     7 C    1.418    18 H    0.964
    10   6 C    3.857 --     8 C    1.431    13 C    1.318    24 F    0.922
    11   6 C    3.983 --     9 C    1.439    13 C    1.377    19 H    0.964
                             8 C    0.107
    12   6 C    3.936 --     3 O    1.538     1 O    1.472     6 C    0.898
    13   6 C    3.942 --    11 C    1.377    10 C    1.318     2 O    1.083
    14   1 H    0.993 --     5 C    0.955
    15   1 H    0.994 --     5 C    0.969
    16   1 H    0.992 --     6 C    0.956
    17   1 H    0.995 --     8 C    0.964
    18   1 H    0.994 --     9 C    0.964
    19   1 H    0.993 --    11 C    0.964
    20   1 H    0.912 --     4 N    0.895
    21   1 H    0.905 --     4 N    0.833
    22   1 H    0.860 --     2 O    0.842
    23   1 H    0.905 --     4 N    0.896
    24   9 F    1.047 --    10 C    0.922
 ---------------------------------------------------------------------------

Topologies differ in total number of bonds
Writing topology from bond orders to xtbtopo.mol

molecular dipole:
                 x           y           z       tot (Debye)
 q only:        3.351      -2.922       1.989
   full:        3.565      -2.685       2.117      12.556
molecular quadrupole (traceless):
                xx          xy          yy          xz          yz          zz
 q only:      -49.577      16.714      21.040     -13.366      -2.403      28.536
  q+dip:      -50.653      18.174      22.529     -12.713      -0.239      28.124
   full:      -51.747      18.630      21.473     -13.447      -0.927      30.274


           -------------------------------------------------
          | TOTAL ENERGY              -44.245930239985 Eh   |
          | GRADIENT NORM               0.051291535720 Eh/α |
          | HOMO-LUMO GAP               3.840453320204 eV   |
           -------------------------------------------------

------------------------------------------------------------------------
 * finished run on 2021/11/15 at 09:23:10.930     
------------------------------------------------------------------------
 total:
 * wall-time:     0 d,  0 h,  0 min,  0.039 sec
 *  cpu-time:     0 d,  0 h,  0 min,  0.031 sec
 * ratio c/w:     0.807 speedup
 SCF:
 * wall-time:     0 d,  0 h,  0 min,  0.014 sec
 *  cpu-time:     0 d,  0 h,  0 min,  0.016 sec
 * ratio c/w:     1.142 speedup

