      -----------------------------------------------------------      
     |                   =====================                   |     
     |                           x T B                           |     
     |                   =====================                   |     
     |                         S. Grimme                         |     
     |          Mulliken Center for Theoretical Chemistry        |     
     |                    University of Bonn                     |     
      -----------------------------------------------------------      

   * xtb version 6.4.1 (afa7bdf) compiled by 'ehlert@majestix' on 2021-06-10

   xtb is free software: you can redistribute it and/or modify it under
   the terms of the GNU Lesser General Public License as published by
   the Free Software Foundation, either version 3 of the License, or
   (at your option) any later version.
   
   xtb is distributed in the hope that it will be useful,
   but WITHOUT ANY WARRANTY; without even the implied warranty of
   MERCHANTABILITY or FITNESS FOR A PARTICULAR PURPOSE.  See the
   GNU Lesser General Public License for more details.
   
   Cite this work as:
   * C. Bannwarth, E. Caldeweyher, S. Ehlert, A. Hansen, P. Pracht,
     J. Seibert, S. Spicher, S. Grimme, WIREs Comput. Mol. Sci., 2020, 11,
     e01493. DOI: 10.1002/wcms.1493
   
   for GFN2-xTB:
   * C. Bannwarth, S. Ehlert and S. Grimme., J. Chem. Theory Comput., 2019,
     15, 1652-1671. DOI: 10.1021/acs.jctc.8b01176
   for GFN1-xTB:
   * S. Grimme, C. Bannwarth, P. Shushkov, J. Chem. Theory Comput., 2017,
     13, 1989-2009. DOI: 10.1021/acs.jctc.7b00118
   for GFN0-xTB:
   * P. Pracht, E. Caldeweyher, S. Ehlert, S. Grimme, ChemRxiv, 2019, preprint.
     DOI: 10.26434/chemrxiv.8326202.v1
   for GFN-FF:
   * S. Spicher and S. Grimme, Angew. Chem. Int. Ed., 2020, 59, 15665-15673.
     DOI: 10.1002/anie.202004239
   
   for DFT-D4:
   * E. Caldeweyher, C. Bannwarth and S. Grimme, J. Chem. Phys., 2017,
     147, 034112. DOI: 10.1063/1.4993215
   * E. Caldeweyher, S. Ehlert, A. Hansen, H. Neugebauer, S. Spicher,
     C. Bannwarth and S. Grimme, J. Chem. Phys., 2019, 150, 154122.
     DOI: 10.1063/1.5090222
   * E. Caldeweyher, J.-M. Mewes, S. Ehlert and S. Grimme, Phys. Chem. Chem. Phys.
     2020, 22, 8499-8512. DOI: 10.1039/D0CP00502A
   
   for sTDA-xTB:
   * S. Grimme and C. Bannwarth, J. Chem. Phys., 2016, 145, 054103.
     DOI: 10.1063/1.4959605
   
   in the mass-spec context:
   * V. Asgeirsson, C. Bauer and S. Grimme, Chem. Sci., 2017, 8, 4879.
     DOI: 10.1039/c7sc00601b
   * J. Koopman and S. Grimme, ACS Omega 2019, 4, 12, 15120-15133.
     DOI: 10.1021/acsomega.9b02011
   
   for metadynamics refer to:
   * S. Grimme, J. Chem. Theory Comput., 2019, 155, 2847-2862
     DOI: 10.1021/acs.jctc.9b00143
   
   for SPH calculations refer to:
   * S. Spicher and S. Grimme, J. Chem. Theory Comput., 2021, 17, 1701-1714
     DOI: 10.1021/acs.jctc.0c01306
   
   with help from (in alphabetical order)
   P. Atkinson, C. Bannwarth, F. Bohle, G. Brandenburg, E. Caldeweyher
   M. Checinski, S. Dohm, S. Ehlert, S. Ehrlich, I. Gerasimov, J. Koopman
   C. Lavigne, S. Lehtola, F. März, M. Müller, F. Musil, H. Neugebauer
   J. Pisarek, C. Plett, P. Pracht, J. Seibert, P. Shushkov, S. Spicher
   M. Stahn, M. Steiner, T. Strunk, J. Stückrath, T. Rose, and J. Unsleber
   
 * started run on 2021/11/15 at 09:23:08.739     

           -------------------------------------------------
          |                Calculation Setup                |
           -------------------------------------------------

          program call               : xtb 20_2-methoxy-5-nitroaniline.xyz --gfn2 --chrg 0 --uhf 0 --alpb water -P 1
          coordinate file            : 20_2-methoxy-5-nitroaniline.xyz
          omp threads                :                     1
          number of atoms            :                    20
          number of electrons        :                    64
          charge                     :                     0
          spin                       :                   0.0
          first test random number   :      0.58219645846947

   ID    Z sym.   atoms
    1    6 C      1-6, 17
    2    1 H      7, 8, 10, 11, 15, 18-20
    3    7 N      9, 12
    4    8 O      13, 14, 16

           -------------------------------------------------
          |                 G F N 2 - x T B                 |
           -------------------------------------------------

        Reference                      10.1021/acs.jctc.8b01176
      * Hamiltonian:
        H0-scaling (s, p, d)           1.850000    2.230000    2.230000
        zeta-weighting                 0.500000
      * Dispersion:
        s8                             2.700000
        a1                             0.520000
        a2                             5.000000
        s9                             5.000000
      * Repulsion:
        kExp                           1.500000    1.000000
        rExp                           1.000000
      * Coulomb:
        alpha                          2.000000
        third order                    shell-resolved
        anisotropic                    true
        a3                             3.000000
        a5                             4.000000
        cn-shift                       1.200000
        cn-exp                         4.000000
        max-rad                        5.000000

      * Solvation model:               ALPB
        Solvent                        water
        Parameter file                 internal GFN2-xTB/ALPB
        Dielectric constant                8.0200E+01
        Reference state                gsolv [1 M gas/solution]
        Free energy shift                  1.0808E-03 Eh       6.7819E-01 kcal/mol
        Temperature                        2.9815E+02 K
        Density                            1.0000E+00 kg/L
        Solvent mass                       1.8000E+01 g/mol
        Interaction kernel             P16
        Born radius scaling (c1)           1.4744E+00
        Born radii integrator          GBOBC
        Born offset                        0.0000E+00 a0       0.0000E+00 AA
        H-bond correction              true
        Ion screening                  false
        Surface tension                    1.0000E-05 Eh       1.5569E+01 dyn/cm
        Grid points                               230 per atom
q/qsh data taken from xtbrestart
CAMM data taken from xtbrestart

          ...................................................
          :                      SETUP                      :
          :.................................................:
          :  # basis functions                  56          :
          :  # atomic orbitals                  56          :
          :  # shells                           32          :
          :  # electrons                        64          :
          :  max. iterations                   250          :
          :  Hamiltonian                  GFN2-xTB          :
          :  restarted?                       true          :
          :  GBSA solvation                   true          :
          :  PC potential                    false          :
          :  electronic temp.          300.0000000     K    :
          :  accuracy                    1.0000000          :
          :  -> integral cutoff          0.2500000E+02      :
          :  -> integral neglect         0.1000000E-07      :
          :  -> SCF convergence          0.1000000E-05 Eh   :
          :  -> wf. convergence          0.1000000E-03 e    :
          :  Broyden damping             0.4000000          :
          ...................................................

 iter      E             dE          RMSdq      gap      omega  full diag
   1    -37.4395208 -0.374395E+02  0.972E-05    1.38       0.0  T
   2    -37.4395208 -0.563034E-10  0.686E-05    1.38     326.1  T
   3    -37.4395208 -0.219202E-10  0.463E-05    1.38     482.4  T

   *** convergence criteria satisfied after 3 iterations ***

         #    Occupation            Energy/Eh            Energy/eV
      -------------------------------------------------------------
         1        2.0000           -0.7652838             -20.8244
       ...           ...                  ...                  ...
        26        2.0000           -0.4655542             -12.6684
        27        2.0000           -0.4583575             -12.4725
        28        2.0000           -0.4525344             -12.3141
        29        2.0000           -0.4437775             -12.0758
        30        2.0000           -0.4393297             -11.9548
        31        2.0000           -0.4125598             -11.2263
        32        2.0000           -0.3721537             -10.1268 (HOMO)
        33                         -0.3213424              -8.7442 (LUMO)
        34                         -0.2343573              -6.3772
        35                         -0.2195814              -5.9751
        36                         -0.1058351              -2.8799
        37                         -0.0229094              -0.6234
       ...                                ...                  ...
        56                          0.6328237              17.2200
      -------------------------------------------------------------
                  HL-Gap            0.0508114 Eh            1.3826 eV
             Fermi-level           -0.3467481 Eh           -9.4355 eV

 SCC (total)                   0 d,  0 h,  0 min,  0.010 sec
 SCC setup                      ...        0 min,  0.001 sec (  5.023%)
 Dispersion                     ...        0 min,  0.000 sec (  1.636%)
 classical contributions        ...        0 min,  0.000 sec (  0.274%)
 integral evaluation            ...        0 min,  0.002 sec ( 21.133%)
 iterations                     ...        0 min,  0.003 sec ( 27.764%)
 molecular gradient             ...        0 min,  0.004 sec ( 42.192%)
 printout                       ...        0 min,  0.000 sec (  1.752%)

         :::::::::::::::::::::::::::::::::::::::::::::::::::::
         ::                     SUMMARY                     ::
         :::::::::::::::::::::::::::::::::::::::::::::::::::::
         :: total energy             -37.028959228911 Eh    ::
         :: total w/o Gsasa/hb       -37.025816478506 Eh    ::
         :: gradient norm              0.036535893682 Eh/a0 ::
         :: HOMO-LUMO gap              1.382647810905 eV    ::
         ::.................................................::
         :: SCC energy               -37.439520765019 Eh    ::
         :: -> isotropic ES            0.095770942107 Eh    ::
         :: -> anisotropic ES          0.004754749687 Eh    ::
         :: -> anisotropic XC          0.007044703196 Eh    ::
         :: -> dispersion             -0.016939680249 Eh    ::
         :: -> Gsolv                  -0.024205508037 Eh    ::
         ::    -> Gelec               -0.021062757632 Eh    ::
         ::    -> Gsasa                0.001869751610 Eh    ::
         ::    -> Ghb                 -0.006093261713 Eh    ::
         ::    -> Gshift               0.001080759698 Eh    ::
         :: repulsion energy           0.410540707297 Eh    ::
         :: add. restraining           0.000000000000 Eh    ::
         :: total charge              -0.000000000000 e     ::
         :::::::::::::::::::::::::::::::::::::::::::::::::::::

           -------------------------------------------------
          |                Property Printout                |
           -------------------------------------------------

    * Orbital Energies and Occupations

         #    Occupation            Energy/Eh            Energy/eV
      -------------------------------------------------------------
         1        2.0000           -0.7652838             -20.8244
       ...           ...                  ...                  ...
        20        2.0000           -0.5056169             -13.7585
        21        2.0000           -0.5011899             -13.6381
        22        2.0000           -0.4936567             -13.4331
        23        2.0000           -0.4829623             -13.1421
        24        2.0000           -0.4729103             -12.8685
        25        2.0000           -0.4660418             -12.6816
        26        2.0000           -0.4655542             -12.6684
        27        2.0000           -0.4583575             -12.4725
        28        2.0000           -0.4525344             -12.3141
        29        2.0000           -0.4437775             -12.0758
        30        2.0000           -0.4393297             -11.9548
        31        2.0000           -0.4125598             -11.2263
        32        2.0000           -0.3721537             -10.1268 (HOMO)
        33                         -0.3213424              -8.7442 (LUMO)
        34                         -0.2343573              -6.3772
        35                         -0.2195814              -5.9751
        36                         -0.1058351              -2.8799
        37                         -0.0229094              -0.6234
        38                         -0.0011032              -0.0300
        39                          0.0503008               1.3688
        40                          0.1045851               2.8459
        41                          0.1145523               3.1171
        42                          0.1481795               4.0322
        43                          0.1539731               4.1898
       ...                                ...                  ...
        56                          0.6328237              17.2200
      -------------------------------------------------------------
                  HL-Gap            0.0508114 Eh            1.3826 eV
             Fermi-level           -0.3467481 Eh           -9.4355 eV

     #   Z          covCN         q      C6AA      α(0)
     1   6 C        2.912    -0.035    28.880     8.812
     2   6 C        2.914    -0.068    29.682     8.934
     3   6 C        2.864     0.139    24.969     8.191
     4   6 C        2.894     0.072    26.389     8.423
     5   6 C        2.916    -0.063    29.564     8.916
     6   6 C        2.908     0.001    28.008     8.678
     7   1 H        0.925     0.080     1.982     2.202
     8   1 H        0.925     0.078     2.001     2.212
     9   7 N        2.638    -0.302    27.769     7.826
    10   1 H        0.860     0.220     1.007     1.572
    11   1 H        0.860     0.213     1.040     1.598
    12   7 N        2.759     0.533    13.668     5.491
    13   8 O        0.927    -0.466    23.003     6.432
    14   8 O        0.927    -0.463    22.952     6.425
    15   1 H        0.926     0.078     1.995     2.209
    16   8 O        1.704    -0.257    18.261     5.770
    17   6 C        3.638     0.002    20.912     6.578
    18   1 H        0.924     0.070     2.085     2.258
    19   1 H        0.924     0.096     1.818     2.109
    20   1 H        0.924     0.071     2.079     2.255

 Mol. C6AA /au·bohr⁶  :       4814.603313
 Mol. C8AA /au·bohr⁸  :     112215.992519
 Mol. α(0) /au        :        106.888525


Wiberg/Mayer (AO) data.
largest (>0.10) Wiberg bond orders for each atom

 ---------------------------------------------------------------------------
     #   Z sym  total        # sym  WBO       # sym  WBO       # sym  WBO
 ---------------------------------------------------------------------------
     1   6 C    3.986 --     2 C    1.443     6 C    1.353    15 H    0.962
     2   6 C    3.984 --     1 C    1.443     3 C    1.376     7 H    0.960
     3   6 C    3.943 --     2 C    1.376     4 C    1.219    16 O    1.110
     4   6 C    3.982 --     5 C    1.409     3 C    1.219     9 N    1.192
     5   6 C    3.983 --     4 C    1.409     6 C    1.327     8 H    0.959
     6   6 C    3.941 --     1 C    1.353     5 C    1.327    12 N    1.004
     7   1 H    0.993 --     2 C    0.960
     8   1 H    0.993 --     5 C    0.959
     9   7 N    3.257 --     4 C    1.192    11 H    0.935    10 H    0.929
    10   1 H    0.951 --     9 N    0.929
    11   1 H    0.954 --     9 N    0.935
    12   7 N    3.878 --    14 O    1.402    13 O    1.401     6 C    1.004
    13   8 O    1.852 --    12 N    1.401    14 O    0.303
    14   8 O    1.856 --    12 N    1.402    13 O    0.303
    15   1 H    0.993 --     1 C    0.962
    16   8 O    2.249 --     3 C    1.110    17 C    0.957
    17   6 C    3.915 --    19 H    0.976    18 H    0.974    20 H    0.974
                            16 O    0.957
    18   1 H    0.993 --    17 C    0.974
    19   1 H    0.990 --    17 C    0.976
    20   1 H    0.993 --    17 C    0.974
 ---------------------------------------------------------------------------

Topologies differ in total number of bonds
Writing topology from bond orders to xtbtopo.mol

molecular dipole:
                 x           y           z       tot (Debye)
 q only:        4.411       0.248      -0.278
   full:        4.292       0.125      -0.491      10.986
molecular quadrupole (traceless):
                xx          xy          yy          xz          yz          zz
 q only:      -14.775      -4.238      12.248      -1.561      -2.015       2.527
  q+dip:      -15.418      -4.757      12.755      -2.648      -3.771       2.663
   full:      -16.413      -5.083      11.650      -2.687      -3.775       4.763


           -------------------------------------------------
          | TOTAL ENERGY              -37.028959228911 Eh   |
          | GRADIENT NORM               0.036535893682 Eh/α |
          | HOMO-LUMO GAP               1.382647810905 eV   |
           -------------------------------------------------

------------------------------------------------------------------------
 * finished run on 2021/11/15 at 09:23:08.773     
------------------------------------------------------------------------
 total:
 * wall-time:     0 d,  0 h,  0 min,  0.034 sec
 *  cpu-time:     0 d,  0 h,  0 min,  0.031 sec
 * ratio c/w:     0.928 speedup
 SCF:
 * wall-time:     0 d,  0 h,  0 min,  0.011 sec
 *  cpu-time:     0 d,  0 h,  0 min,  0.016 sec
 * ratio c/w:     1.480 speedup

