      -----------------------------------------------------------      
     |                   =====================                   |     
     |                           x T B                           |     
     |                   =====================                   |     
     |                         S. Grimme                         |     
     |          Mulliken Center for Theoretical Chemistry        |     
     |                    University of Bonn                     |     
      -----------------------------------------------------------      

   * xtb version 6.4.1 (afa7bdf) compiled by 'ehlert@majestix' on 2021-06-10

   xtb is free software: you can redistribute it and/or modify it under
   the terms of the GNU Lesser General Public License as published by
   the Free Software Foundation, either version 3 of the License, or
   (at your option) any later version.
   
   xtb is distributed in the hope that it will be useful,
   but WITHOUT ANY WARRANTY; without even the implied warranty of
   MERCHANTABILITY or FITNESS FOR A PARTICULAR PURPOSE.  See the
   GNU Lesser General Public License for more details.
   
   Cite this work as:
   * C. Bannwarth, E. Caldeweyher, S. Ehlert, A. Hansen, P. Pracht,
     J. Seibert, S. Spicher, S. Grimme, WIREs Comput. Mol. Sci., 2020, 11,
     e01493. DOI: 10.1002/wcms.1493
   
   for GFN2-xTB:
   * C. Bannwarth, S. Ehlert and S. Grimme., J. Chem. Theory Comput., 2019,
     15, 1652-1671. DOI: 10.1021/acs.jctc.8b01176
   for GFN1-xTB:
   * S. Grimme, C. Bannwarth, P. Shushkov, J. Chem. Theory Comput., 2017,
     13, 1989-2009. DOI: 10.1021/acs.jctc.7b00118
   for GFN0-xTB:
   * P. Pracht, E. Caldeweyher, S. Ehlert, S. Grimme, ChemRxiv, 2019, preprint.
     DOI: 10.26434/chemrxiv.8326202.v1
   for GFN-FF:
   * S. Spicher and S. Grimme, Angew. Chem. Int. Ed., 2020, 59, 15665-15673.
     DOI: 10.1002/anie.202004239
   
   for DFT-D4:
   * E. Caldeweyher, C. Bannwarth and S. Grimme, J. Chem. Phys., 2017,
     147, 034112. DOI: 10.1063/1.4993215
   * E. Caldeweyher, S. Ehlert, A. Hansen, H. Neugebauer, S. Spicher,
     C. Bannwarth and S. Grimme, J. Chem. Phys., 2019, 150, 154122.
     DOI: 10.1063/1.5090222
   * E. Caldeweyher, J.-M. Mewes, S. Ehlert and S. Grimme, Phys. Chem. Chem. Phys.
     2020, 22, 8499-8512. DOI: 10.1039/D0CP00502A
   
   for sTDA-xTB:
   * S. Grimme and C. Bannwarth, J. Chem. Phys., 2016, 145, 054103.
     DOI: 10.1063/1.4959605
   
   in the mass-spec context:
   * V. Asgeirsson, C. Bauer and S. Grimme, Chem. Sci., 2017, 8, 4879.
     DOI: 10.1039/c7sc00601b
   * J. Koopman and S. Grimme, ACS Omega 2019, 4, 12, 15120-15133.
     DOI: 10.1021/acsomega.9b02011
   
   for metadynamics refer to:
   * S. Grimme, J. Chem. Theory Comput., 2019, 155, 2847-2862
     DOI: 10.1021/acs.jctc.9b00143
   
   for SPH calculations refer to:
   * S. Spicher and S. Grimme, J. Chem. Theory Comput., 2021, 17, 1701-1714
     DOI: 10.1021/acs.jctc.0c01306
   
   with help from (in alphabetical order)
   P. Atkinson, C. Bannwarth, F. Bohle, G. Brandenburg, E. Caldeweyher
   M. Checinski, S. Dohm, S. Ehlert, S. Ehrlich, I. Gerasimov, J. Koopman
   C. Lavigne, S. Lehtola, F. März, M. Müller, F. Musil, H. Neugebauer
   J. Pisarek, C. Plett, P. Pracht, J. Seibert, P. Shushkov, S. Spicher
   M. Stahn, M. Steiner, T. Strunk, J. Stückrath, T. Rose, and J. Unsleber
   
 * started run on 2021/11/15 at 09:36:19.144     

           -------------------------------------------------
          |                Calculation Setup                |
           -------------------------------------------------

          program call               : xtb 27_diethylamine.xyz --gfn2 --chrg 0 --uhf 0 --alpb water --ohess -P 1
          coordinate file            : 27_diethylamine.xyz
          omp threads                :                     1
          number of atoms            :                    16
          number of electrons        :                    32
          charge                     :                     0
          spin                       :                   0.0
          first test random number   :      0.00430149043241

   ID    Z sym.   atoms
    1    7 N      1
    2    1 H      2, 4, 5, 7-9, 11, 12, 14-16
    3    6 C      3, 6, 10, 13

           -------------------------------------------------
          |                 G F N 2 - x T B                 |
           -------------------------------------------------

        Reference                      10.1021/acs.jctc.8b01176
      * Hamiltonian:
        H0-scaling (s, p, d)           1.850000    2.230000    2.230000
        zeta-weighting                 0.500000
      * Dispersion:
        s8                             2.700000
        a1                             0.520000
        a2                             5.000000
        s9                             5.000000
      * Repulsion:
        kExp                           1.500000    1.000000
        rExp                           1.000000
      * Coulomb:
        alpha                          2.000000
        third order                    shell-resolved
        anisotropic                    true
        a3                             3.000000
        a5                             4.000000
        cn-shift                       1.200000
        cn-exp                         4.000000
        max-rad                        5.000000

      * Solvation model:               ALPB
        Solvent                        water
        Parameter file                 internal GFN2-xTB/ALPB
        Dielectric constant                8.0200E+01
        Reference state                gsolv [1 M gas/solution]
        Free energy shift                  1.0808E-03 Eh       6.7819E-01 kcal/mol
        Temperature                        2.9815E+02 K
        Density                            1.0000E+00 kg/L
        Solvent mass                       1.8000E+01 g/mol
        Interaction kernel             P16
        Born radius scaling (c1)           1.4744E+00
        Born radii integrator          GBOBC
        Born offset                        0.0000E+00 a0       0.0000E+00 AA
        H-bond correction              true
        Ion screening                  false
        Surface tension                    1.0000E-05 Eh       1.5569E+01 dyn/cm
        Grid points                               230 per atom

          ...................................................
          :                      SETUP                      :
          :.................................................:
          :  # basis functions                  31          :
          :  # atomic orbitals                  31          :
          :  # shells                           21          :
          :  # electrons                        32          :
          :  max. iterations                   250          :
          :  Hamiltonian                  GFN2-xTB          :
          :  restarted?                      false          :
          :  GBSA solvation                   true          :
          :  PC potential                    false          :
          :  electronic temp.          300.0000000     K    :
          :  accuracy                    1.0000000          :
          :  -> integral cutoff          0.2500000E+02      :
          :  -> integral neglect         0.1000000E-07      :
          :  -> SCF convergence          0.1000000E-05 Eh   :
          :  -> wf. convergence          0.1000000E-03 e    :
          :  Broyden damping             0.4000000          :
          ...................................................

 iter      E             dE          RMSdq      gap      omega  full diag
   1    -17.2938563 -0.172939E+02  0.271E+00   10.64       0.0  T
   2    -17.3108556 -0.169993E-01  0.154E+00   10.51       1.0  T
   3    -17.3118022 -0.946601E-03  0.543E-01   10.53       1.0  T
   4    -17.3119011 -0.988804E-04  0.915E-02   10.49       1.0  T
   5    -17.3119103 -0.925398E-05  0.428E-02   10.48       1.0  T
   6    -17.3119112 -0.875621E-06  0.144E-02   10.48       1.7  T
   7    -17.3119115 -0.239193E-06  0.264E-03   10.49       9.5  T
   8    -17.3119115 -0.541048E-08  0.483E-04   10.49      51.8  T
   9    -17.3119115 -0.223107E-09  0.200E-04   10.49     125.2  T

   *** convergence criteria satisfied after 9 iterations ***

         #    Occupation            Energy/Eh            Energy/eV
      -------------------------------------------------------------
         1        2.0000           -0.6313977             -17.1812
       ...           ...                  ...                  ...
        10        2.0000           -0.4696407             -12.7796
        11        2.0000           -0.4537776             -12.3479
        12        2.0000           -0.4530527             -12.3282
        13        2.0000           -0.4420314             -12.0283
        14        2.0000           -0.4377219             -11.9110
        15        2.0000           -0.4327774             -11.7765
        16        2.0000           -0.3574617              -9.7270 (HOMO)
        17                          0.0278764               0.7586 (LUMO)
        18                          0.0978871               2.6636
        19                          0.1044306               2.8417
        20                          0.1233564               3.3567
        21                          0.1506356               4.0990
       ...                                ...                  ...
        31                          0.2728958               7.4259
      -------------------------------------------------------------
                  HL-Gap            0.3853381 Eh           10.4856 eV
             Fermi-level           -0.1647926 Eh           -4.4842 eV

 SCC (total)                   0 d,  0 h,  0 min,  0.006 sec
 SCC setup                      ...        0 min,  0.000 sec (  7.008%)
 Dispersion                     ...        0 min,  0.000 sec (  1.545%)
 classical contributions        ...        0 min,  0.000 sec (  0.392%)
 integral evaluation            ...        0 min,  0.001 sec ( 13.992%)
 iterations                     ...        0 min,  0.003 sec ( 43.115%)
 molecular gradient             ...        0 min,  0.002 sec ( 31.210%)
 printout                       ...        0 min,  0.000 sec (  2.309%)

         :::::::::::::::::::::::::::::::::::::::::::::::::::::
         ::                     SUMMARY                     ::
         :::::::::::::::::::::::::::::::::::::::::::::::::::::
         :: total energy             -17.086815787563 Eh    ::
         :: total w/o Gsasa/hb       -17.085379177806 Eh    ::
         :: gradient norm              0.020718949708 Eh/a0 ::
         :: HOMO-LUMO gap             10.485583149915 eV    ::
         ::.................................................::
         :: SCC energy               -17.311911467205 Eh    ::
         :: -> isotropic ES            0.012458313469 Eh    ::
         :: -> anisotropic ES          0.005938084087 Eh    ::
         :: -> anisotropic XC          0.014365435920 Eh    ::
         :: -> dispersion             -0.007570909552 Eh    ::
         :: -> Gsolv                  -0.002555893218 Eh    ::
         ::    -> Gelec               -0.001119283461 Eh    ::
         ::    -> Gsasa               -0.001423757795 Eh    ::
         ::    -> Ghb                 -0.001093611660 Eh    ::
         ::    -> Gshift               0.001080759698 Eh    ::
         :: repulsion energy           0.225094272403 Eh    ::
         :: add. restraining           0.000000000000 Eh    ::
         :: total charge              -0.000000000000 e     ::
         :::::::::::::::::::::::::::::::::::::::::::::::::::::

      ----------------------------------------------------------- 
     |                   =====================                   |
     |                        A N C O P T                        |
     |                   =====================                   |
     |               Approximate Normal Coordinate               |
     |                Rational Function Optimizer                |
      ----------------------------------------------------------- 

          ...................................................
          :                      SETUP                      :
          :.................................................:
          :   optimization level            normal          :
          :   max. optcycles                   200          :
          :   ANC micro-cycles                  20          :
          :   degrees of freedom                42          :
          :.................................................:
          :   RF solver                   davidson          :
          :   write xtbopt.log                true          :
          :   linear?                        false          :
          :   energy convergence         0.5000000E-05 Eh   :
          :   grad. convergence          0.1000000E-02 Eh/α :
          :   maximium RF displ.         1.0000000          :
          :   Hlow (freq-cutoff)         0.1000000E-01      :
          :   Hmax (freq-cutoff)         5.0000000          :
          :   S6 in model hess.         20.0000000          :
          ...................................................

generating ANC from model Hessian ...
Using Lindh-Hessian (1995)
 Shifting diagonal of input Hessian by   6.324654668664840E-003
 Lowest  eigenvalues of input Hessian
    0.000000    0.000000    0.000000    0.000000    0.000000    0.000000
    0.010000    0.010262    0.011506    0.017845    0.019267    0.026005
    0.026752    0.046249    0.050294    0.058953    0.059526    0.062360
 Highest eigenvalues
    1.135369    1.152796    1.202909    1.245548    1.340753    1.446885
 

........................................................................
.............................. CYCLE    1 ..............................
........................................................................
   1    -17.3119115 -0.173119E+02  0.179E-05   10.49       0.0  T
   2    -17.3119115 -0.184741E-12  0.113E-05   10.49    2219.6  T
   3    -17.3119115 -0.817124E-13  0.185E-06   10.49   13512.3  T
     SCC iter.                  ...        0 min,  0.001 sec
     gradient                   ...        0 min,  0.002 sec
 * total energy  :   -17.0868158 Eh     change       -0.1964295E-10 Eh
   gradient norm :     0.0207192 Eh/α   predicted     0.0000000E+00 (-100.00%)
   displ. norm   :     0.1492823 α      lambda       -0.1326370E-02
   maximum displ.:     0.0887571 α      in ANC's #6, #2, #3, ...

........................................................................
.............................. CYCLE    2 ..............................
........................................................................
   1    -17.3190641 -0.173191E+02  0.121E-01   10.62       0.0  T
   2    -17.3190669 -0.274480E-05  0.698E-02   10.62       1.0  T
   3    -17.3190672 -0.329473E-06  0.705E-03   10.62       3.5  T
   4    -17.3190674 -0.170684E-06  0.257E-03   10.62       9.7  T
   5    -17.3190674 -0.171714E-08  0.893E-04   10.62      28.0  T
   6    -17.3190674 -0.399734E-09  0.159E-04   10.62     157.0  T
     SCC iter.                  ...        0 min,  0.003 sec
     gradient                   ...        0 min,  0.002 sec
 * total energy  :   -17.0876725 Eh     change       -0.8566917E-03 Eh
   gradient norm :     0.0081665 Eh/α   predicted    -0.6779630E-03 ( -20.86%)
   displ. norm   :     0.1061425 α      lambda       -0.2719740E-03
   maximum displ.:     0.0603355 α      in ANC's #3, #2, #6, ...

........................................................................
.............................. CYCLE    3 ..............................
........................................................................
   1    -17.3222406 -0.173222E+02  0.531E-02   10.68       0.0  T
   2    -17.3222414 -0.747794E-06  0.308E-02   10.68       1.0  T
   3    -17.3222415 -0.110536E-06  0.376E-03   10.69       6.7  T
   4    -17.3222415 -0.360398E-07  0.144E-03   10.69      17.3  T
   5    -17.3222415 -0.662457E-09  0.461E-04   10.69      54.2  T
   6    -17.3222415 -0.115637E-09  0.952E-05   10.69     262.6  T
     SCC iter.                  ...        0 min,  0.003 sec
     gradient                   ...        0 min,  0.003 sec
 * total energy  :   -17.0878393 Eh     change       -0.1668412E-03 Eh
   gradient norm :     0.0024930 Eh/α   predicted    -0.1375199E-03 ( -17.57%)
   displ. norm   :     0.0719661 α      lambda       -0.5322670E-04
   maximum displ.:     0.0457734 α      in ANC's #2, #3, #5, ...

........................................................................
.............................. CYCLE    4 ..............................
........................................................................
   1    -17.3225252 -0.173225E+02  0.266E-02   10.70       0.0  T
   2    -17.3225254 -0.127407E-06  0.155E-02   10.70       1.6  T
   3    -17.3225254 -0.231217E-07  0.161E-03   10.71      15.6  T
   4    -17.3225254 -0.783687E-08  0.697E-04   10.71      35.8  T
   5    -17.3225254 -0.155858E-09  0.623E-05   10.71     401.2  T
     SCC iter.                  ...        0 min,  0.002 sec
     gradient                   ...        0 min,  0.003 sec
 * total energy  :   -17.0878770 Eh     change       -0.3763210E-04 Eh
   gradient norm :     0.0014507 Eh/α   predicted    -0.2674987E-04 ( -28.92%)
   displ. norm   :     0.1012166 α      lambda       -0.2814265E-04
   maximum displ.:     0.0644036 α      in ANC's #2, #5, #3, ...

........................................................................
.............................. CYCLE    5 ..............................
........................................................................
   1    -17.3221281 -0.173221E+02  0.348E-02   10.71       0.0  T
   2    -17.3221283 -0.220732E-06  0.205E-02   10.71       1.2  T
   3    -17.3221283 -0.280820E-07  0.195E-03   10.71      12.8  T
   4    -17.3221284 -0.108668E-07  0.791E-04   10.71      31.6  T
   5    -17.3221284 -0.250683E-09  0.254E-04   10.71      98.4  T
     SCC iter.                  ...        0 min,  0.003 sec
     gradient                   ...        0 min,  0.003 sec
 * total energy  :   -17.0878987 Eh     change       -0.2179713E-04 Eh
   gradient norm :     0.0015612 Eh/α   predicted    -0.1413714E-04 ( -35.14%)
   displ. norm   :     0.0289619 α      lambda       -0.7444653E-05
   maximum displ.:     0.0202084 α      in ANC's #5, #2, #12, ...

........................................................................
.............................. CYCLE    6 ..............................
........................................................................
   1    -17.3221762 -0.173222E+02  0.850E-03   10.71       0.0  T
   2    -17.3221762 -0.768661E-08  0.506E-03   10.71       4.9  T
   3    -17.3221762 -0.340815E-08  0.373E-04   10.71      67.0  T
   4    -17.3221762 -0.518376E-10  0.919E-05   10.71     272.0  T
     SCC iter.                  ...        0 min,  0.002 sec
     gradient                   ...        0 min,  0.003 sec
 * total energy  :   -17.0879075 Eh     change       -0.8715840E-05 Eh
   gradient norm :     0.0009437 Eh/α   predicted    -0.3723130E-05 ( -57.28%)
   displ. norm   :     0.0597102 α      lambda       -0.8919394E-05
   maximum displ.:     0.0419372 α      in ANC's #5, #2, #12, ...

........................................................................
.............................. CYCLE    7 ..............................
........................................................................
   1    -17.3221473 -0.173221E+02  0.167E-02   10.70       0.0  T
   2    -17.3221473 -0.227664E-07  0.995E-03   10.70       2.5  T
   3    -17.3221473 -0.606066E-08  0.638E-04   10.70      39.2  T
   4    -17.3221473 -0.118936E-08  0.330E-04   10.70      75.8  T
     SCC iter.                  ...        0 min,  0.002 sec
     gradient                   ...        0 min,  0.003 sec
 * total energy  :   -17.0879155 Eh     change       -0.8027460E-05 Eh
   gradient norm :     0.0006412 Eh/α   predicted    -0.4466370E-05 ( -44.36%)
   displ. norm   :     0.0247826 α      lambda       -0.1576595E-05
   maximum displ.:     0.0185417 α      in ANC's #2, #5, #3, ...

........................................................................
.............................. CYCLE    8 ..............................
........................................................................
   1    -17.3222820 -0.173223E+02  0.644E-03   10.70       0.0  T
   2    -17.3222820 -0.762020E-08  0.383E-03   10.70       6.5  T
   3    -17.3222820 -0.595385E-09  0.252E-04   10.70      99.0  T
   4    -17.3222820 -0.518448E-10  0.879E-05   10.70     284.6  T
     SCC iter.                  ...        0 min,  0.001 sec
     gradient                   ...        0 min,  0.002 sec
 * total energy  :   -17.0879171 Eh     change       -0.1578437E-05 Eh
   gradient norm :     0.0002913 Eh/α   predicted    -0.7891444E-06 ( -50.00%)
   displ. norm   :     0.0143838 α      lambda       -0.6263015E-06
   maximum displ.:     0.0118112 α      in ANC's #2, #3, #5, ...

   *** GEOMETRY OPTIMIZATION CONVERGED AFTER 8 ITERATIONS ***

------------------------------------------------------------------------
 total energy gain   :        -0.0011013 Eh       -0.6911 kcal/mol
 total RMSD          :         0.1149096 a0        0.0608 Å
 total power (kW/mol):        -0.3614276 (step)  -53.0690 (real)
------------------------------------------------------------------------

 ANCopt (total)                0 d,  0 h,  0 min,  0.055 sec
 optimizer setup                ...        0 min,  0.000 sec (  0.323%)
 model hessian                  ...        0 min,  0.002 sec (  3.950%)
 ANC generation                 ...        0 min,  0.000 sec (  0.543%)
 coordinate transformation      ...        0 min,  0.000 sec (  0.132%)
 single point calculation       ...        0 min,  0.048 sec ( 88.672%)
 optimization log               ...        0 min,  0.002 sec (  3.061%)
 hessian update                 ...        0 min,  0.000 sec (  0.117%)
 rational function              ...        0 min,  0.001 sec (  1.889%)

================
 final structure:
================
16
 xtb: 6.4.1 (afa7bdf)
N         0.08622776037949   -0.26389805750065    0.00000000116169
H        -0.64020989445079   -0.97555555789713    0.00000000431927
C        -0.02465969623279    0.52746835720226    1.21214872047290
H         0.82496917817887    1.21815323958262    1.22957585157561
H        -0.94743900608388    1.13949210391918    1.22267010183579
C         0.01101684153834   -0.36655204373627    2.44319691104518
H         0.91278450425440   -0.97136072597983    2.43398703960740
H        -0.00103953002162    0.23922750123645    3.34479383701014
H        -0.85149572068294   -1.02917912381106    2.45750672242306
C        -0.02465969922007    0.52746835375954   -1.21214872044384
H         0.82496917475115    1.21815323600424   -1.22957585315093
H        -0.94743900961975    1.13949210356396   -1.22267010248048
C         0.01101684088228   -0.36655204223182   -2.44319691234886
H        -0.85149572345346   -1.02917911941922   -2.45750672506902
H        -0.00103952403308    0.23922750296385   -3.34479383907774
H         0.91278450381384   -0.97136072765610   -2.43398703688018
 
 Bond Distances (Angstroems)
 ---------------------------
N1-H2=1.0169         N1-C3=1.4518         N1-C10=1.4518        H2-N1=1.0169         C3-N1=1.4518         C3-H4=1.0951         
C3-H5=1.1073         C3-C6=1.5218         H4-C3=1.0951         H5-C3=1.1073         C6-C3=1.5218         C6-H7=1.0858         
C6-H8=1.0863         C6-H9=1.0878         H7-C6=1.0858         H8-C6=1.0863         H9-C6=1.0878         C10-N1=1.4518        
C10-H11=1.0951       C10-H12=1.1073       C10-C13=1.5218       H11-C10=1.0951       H12-C10=1.1073       C13-C10=1.5218       
C13-H14=1.0878       C13-H15=1.0863       C13-H16=1.0858       H14-C13=1.0878       H15-C13=1.0863       H16-C13=1.0858       
 C  H  Rav=1.0925 sigma=0.0082  Rmin=1.0858  Rmax=1.1073    10
 C  C  Rav=1.5218 sigma=0.0000  Rmin=1.5218  Rmax=1.5218     2
 N  H  Rav=1.0169 sigma=0.0000  Rmin=1.0169  Rmax=1.0169     1
 N  C  Rav=1.4518 sigma=0.0000  Rmin=1.4518  Rmax=1.4518     2
 
 selected bond angles (degree)
 --------------------
C3-N1-H2=109.08                C10-N1-H2=109.08               C10-N1-C3=113.21               H4-C3-N1=107.33                
H5-C3-N1=111.89                H5-C3-H4=107.33                C6-C3-N1=110.69                C6-C3-H4=109.84                
C6-C3-H5=109.67                H7-C6-C3=109.87                H8-C6-C3=110.09                H8-C6-H7=109.08                
H9-C6-C3=110.48                H9-C6-H7=108.62                H9-C6-H8=108.66                H11-C10-N1=107.33              
H12-C10-N1=111.89              H12-C10-H11=107.33             C13-C10-N1=110.69              C13-C10-H11=109.84             
C13-C10-H12=109.67             
 
 selected dihedral angles (degree)
 ---------------------------------
H4-C3-N1-H2=174.65            H4-C3-N1-C10=296.29           H5-C3-N1-H2=292.13            H5-C3-N1-C10= 53.78           
C6-C3-N1-H2= 54.78            C6-C3-N1-C10=176.43           H7-C6-C3-N1= 55.83            H7-C6-C3-H4=297.48            
H7-C6-C3-H5=179.76            H8-C6-C3-N1=175.98            H8-C6-C3-H4= 57.63            H8-C6-C3-H5=299.91            
H9-C6-C3-N1=296.00            H9-C6-C3-H4=177.65            H9-C6-C3-H5= 59.93            H11-C10-N1-H2=185.35          
H11-C10-N1-C3= 63.71          H12-C10-N1-H2= 67.87          H12-C10-N1-C3=306.22          C13-C10-N1-H2=305.22          
C13-C10-N1-C3=183.57          
           -------------------------------------------------
          |                Final Singlepoint                |
           -------------------------------------------------

          ...................................................
          :                      SETUP                      :
          :.................................................:
          :  # basis functions                  31          :
          :  # atomic orbitals                  31          :
          :  # shells                           21          :
          :  # electrons                        32          :
          :  max. iterations                   250          :
          :  Hamiltonian                  GFN2-xTB          :
          :  restarted?                      false          :
          :  GBSA solvation                   true          :
          :  PC potential                    false          :
          :  electronic temp.          300.0000000     K    :
          :  accuracy                    1.0000000          :
          :  -> integral cutoff          0.2500000E+02      :
          :  -> integral neglect         0.1000000E-07      :
          :  -> SCF convergence          0.1000000E-05 Eh   :
          :  -> wf. convergence          0.1000000E-03 e    :
          :  Broyden damping             0.4000000          :
          ...................................................

 iter      E             dE          RMSdq      gap      omega  full diag
   1    -17.3222820 -0.173223E+02  0.352E-05   10.70       0.0  T
   2    -17.3222820 -0.937916E-12  0.215E-05   10.70    1161.7  T
   3    -17.3222820 -0.781597E-13  0.523E-06   10.70    4776.6  T

   *** convergence criteria satisfied after 3 iterations ***

         #    Occupation            Energy/Eh            Energy/eV
      -------------------------------------------------------------
         1        2.0000           -0.6321943             -17.2029
       ...           ...                  ...                  ...
        10        2.0000           -0.4695577             -12.7773
        11        2.0000           -0.4535856             -12.3427
        12        2.0000           -0.4529141             -12.3244
        13        2.0000           -0.4407887             -11.9945
        14        2.0000           -0.4385156             -11.9326
        15        2.0000           -0.4334206             -11.7940
        16        2.0000           -0.3534465              -9.6178 (HOMO)
        17                          0.0399184               1.0862 (LUMO)
        18                          0.1001072               2.7241
        19                          0.1166866               3.1752
        20                          0.1270669               3.4577
        21                          0.1546532               4.2083
       ...                                ...                  ...
        31                          0.2863817               7.7928
      -------------------------------------------------------------
                  HL-Gap            0.3933649 Eh           10.7040 eV
             Fermi-level           -0.1567641 Eh           -4.2658 eV

 SCC (total)                   0 d,  0 h,  0 min,  0.004 sec
 SCC setup                      ...        0 min,  0.000 sec (  7.369%)
 Dispersion                     ...        0 min,  0.000 sec (  0.751%)
 classical contributions        ...        0 min,  0.000 sec (  0.295%)
 integral evaluation            ...        0 min,  0.001 sec ( 17.484%)
 iterations                     ...        0 min,  0.001 sec ( 32.025%)
 molecular gradient             ...        0 min,  0.002 sec ( 38.695%)
 printout                       ...        0 min,  0.000 sec (  2.930%)

         :::::::::::::::::::::::::::::::::::::::::::::::::::::
         ::                     SUMMARY                     ::
         :::::::::::::::::::::::::::::::::::::::::::::::::::::
         :: total energy             -17.087917071466 Eh    ::
         :: total w/o Gsasa/hb       -17.086569423642 Eh    ::
         :: gradient norm              0.000291858380 Eh/a0 ::
         :: HOMO-LUMO gap             10.704003824967 eV    ::
         ::.................................................::
         :: SCC energy               -17.322282028015 Eh    ::
         :: -> isotropic ES            0.012638757494 Eh    ::
         :: -> anisotropic ES          0.005321702423 Eh    ::
         :: -> anisotropic XC          0.014256350676 Eh    ::
         :: -> dispersion             -0.007612618793 Eh    ::
         :: -> Gsolv                  -0.002436922174 Eh    ::
         ::    -> Gelec               -0.001089274350 Eh    ::
         ::    -> Gsasa               -0.001311109117 Eh    ::
         ::    -> Ghb                 -0.001117298406 Eh    ::
         ::    -> Gshift               0.001080759698 Eh    ::
         :: repulsion energy           0.234362242202 Eh    ::
         :: add. restraining           0.000000000000 Eh    ::
         :: total charge              -0.000000000000 e     ::
         :::::::::::::::::::::::::::::::::::::::::::::::::::::

           ------------------------------------------------- 
          |                Numerical Hessian                |
           ------------------------------------------------- 
step length          :   0.00500
SCC accuracy         :   0.30000
Hessian scale factor :   1.00000
frozen atoms in %    :   0.00000    0
RMS gradient         :   0.00029
estimated CPU  time      0.01 min
estimated wall time      0.01 min

writing file <hessian>.

 projected vibrational frequencies (cm⁻¹)
eigval :       -0.00    -0.00     0.00     0.00     0.00     0.00
eigval :      109.01   115.82   185.99   227.63   234.28   412.51
eigval :      422.37   814.65   832.10   854.99   922.66   980.61
eigval :     1062.17  1092.31  1101.55  1155.58  1167.56  1197.20
eigval :     1242.50  1276.85  1315.78  1351.06  1401.73  1406.16
eigval :     1406.50  1485.79  1486.21  1493.73  1494.80  1498.89
eigval :     1500.94  2756.83  2763.88  2936.16  2939.20  3026.69
eigval :     3027.00  3044.42  3044.94  3054.42  3055.03  3346.45
           -------------------------------------------------
          |                Property Printout                |
           -------------------------------------------------

    * Orbital Energies and Occupations

         #    Occupation            Energy/Eh            Energy/eV
      -------------------------------------------------------------
         1        2.0000           -0.6321943             -17.2029
       ...           ...                  ...                  ...
         4        2.0000           -0.5646613             -15.3652
         5        2.0000           -0.5626303             -15.3100
         6        2.0000           -0.5262620             -14.3203
         7        2.0000           -0.5183026             -14.1037
         8        2.0000           -0.4969551             -13.5228
         9        2.0000           -0.4954744             -13.4825
        10        2.0000           -0.4695577             -12.7773
        11        2.0000           -0.4535856             -12.3427
        12        2.0000           -0.4529141             -12.3244
        13        2.0000           -0.4407887             -11.9945
        14        2.0000           -0.4385156             -11.9326
        15        2.0000           -0.4334206             -11.7940
        16        2.0000           -0.3534466              -9.6178 (HOMO)
        17                          0.0399184               1.0862 (LUMO)
        18                          0.1001072               2.7241
        19                          0.1166866               3.1752
        20                          0.1270669               3.4577
        21                          0.1546532               4.2083
        22                          0.1615211               4.3952
        23                          0.1709822               4.6527
        24                          0.1800868               4.9004
        25                          0.1830984               4.9824
        26                          0.1957049               5.3254
        27                          0.2340828               6.3697
       ...                                ...                  ...
        31                          0.2863817               7.7928
      -------------------------------------------------------------
                  HL-Gap            0.3933649 Eh           10.7040 eV
             Fermi-level           -0.1567641 Eh           -4.2658 eV

     #   Z          covCN         q      C6AA      α(0)
     1   7 N        2.680    -0.291    27.496     7.788
     2   1 H        0.860     0.152     1.388     1.846
     3   6 C        3.741     0.022    20.280     6.425
     4   1 H        0.924     0.030     2.591     2.517
     5   1 H        0.922    -0.005     3.151     2.776
     6   6 C        3.753    -0.121    22.881     6.821
     7   1 H        0.925     0.055     2.256     2.349
     8   1 H        0.925     0.047     2.357     2.401
     9   1 H        0.925     0.042     2.421     2.433
    10   6 C        3.741     0.022    20.280     6.425
    11   1 H        0.924     0.030     2.591     2.517
    12   1 H        0.922    -0.005     3.151     2.776
    13   6 C        3.753    -0.121    22.881     6.821
    14   1 H        0.925     0.042     2.421     2.433
    15   1 H        0.925     0.047     2.357     2.401
    16   1 H        0.925     0.055     2.256     2.349

 Mol. C6AA /au·bohr⁶  :       1671.753292
 Mol. C8AA /au·bohr⁸  :      33792.214831
 Mol. α(0) /au        :         61.079572


Wiberg/Mayer (AO) data.
largest (>0.10) Wiberg bond orders for each atom

 ---------------------------------------------------------------------------
     #   Z sym  total        # sym  WBO       # sym  WBO       # sym  WBO
 ---------------------------------------------------------------------------
     1   7 N    3.054 --     3 C    1.013    10 C    1.013     2 H    0.951
     2   1 H    0.977 --     1 N    0.951
     3   6 C    3.988 --     6 C    1.018     1 N    1.013     4 H    0.974
                             5 H    0.966
     4   1 H    0.999 --     3 C    0.974
     5   1 H    1.000 --     3 C    0.966
     6   6 C    3.994 --     3 C    1.018     9 H    0.987     7 H    0.986
                             8 H    0.986
     7   1 H    0.997 --     6 C    0.986
     8   1 H    0.997 --     6 C    0.986
     9   1 H    0.998 --     6 C    0.987
    10   6 C    3.988 --    13 C    1.018     1 N    1.013    11 H    0.974
                            12 H    0.966
    11   1 H    0.999 --    10 C    0.974
    12   1 H    1.000 --    10 C    0.966
    13   6 C    3.994 --    10 C    1.018    14 H    0.987    16 H    0.986
                            15 H    0.986
    14   1 H    0.998 --    13 C    0.987
    15   1 H    0.997 --    13 C    0.986
    16   1 H    0.997 --    13 C    0.986
 ---------------------------------------------------------------------------

Topologies differ in total number of bonds
Writing topology from bond orders to xtbtopo.mol

molecular dipole:
                 x           y           z       tot (Debye)
 q only:       -0.072      -0.133       0.000
   full:       -0.404       0.027       0.000       1.030
molecular quadrupole (traceless):
                xx          xy          yy          xz          yz          zz
 q only:       -1.422       0.797      -0.710       0.000       0.000       2.132
  q+dip:        0.209       1.412      -0.470      -0.000      -0.000       0.261
   full:       -0.671       1.494      -0.453       0.000      -0.000       1.124

           -------------------------------------------------
          |                Geometry Summary                 |
           -------------------------------------------------

      molecular mass/u    :       73.1369951
   center of mass at/Å    :        0.0014948       0.0053043      -0.0000000
  moments of inertia/u·Å² :        0.2846238E+02   0.2382680E+03   0.2530257E+03
rotational constants/cm⁻¹ :        0.5922777E+00   0.7075073E-01   0.6662419E-01

 * 15 selected distances

     #   Z          #   Z                                           value/Å
     1   7 N        2   1 H                                       1.0169405 (min)
     1   7 N        3   6 C                                       1.4518476
     3   6 C        4   1 H                                       1.0950884
     3   6 C        5   1 H                                       1.1073416
     3   6 C        6   6 C                                       1.5218492 (max)
     6   6 C        7   1 H                                       1.0858468
     6   6 C        8   1 H                                       1.0862740
     6   6 C        9   1 H                                       1.0877533
     1   7 N       10   6 C                                       1.4518476
    10   6 C       11   1 H                                       1.0950884
    10   6 C       12   1 H                                       1.1073416
    10   6 C       13   6 C                                       1.5218492
    13   6 C       14   1 H                                       1.0877533
    13   6 C       15   1 H                                       1.0862740
    13   6 C       16   1 H                                       1.0858468

 * 4 distinct bonds (by element types)

   Z      Z             #   av. dist./Å        max./Å        min./Å
   1 H    6 C          10     1.0924608     1.1073416     1.0858468
   6 C    6 C           2     1.5218492     1.5218492     1.5218492
   1 H    7 N           1     1.0169405     1.0169405     1.0169405
   6 C    7 N           2     1.4518476     1.4518476     1.4518476

           -------------------------------------------------
          |               Frequency Printout                |
           -------------------------------------------------
 projected vibrational frequencies (cm⁻¹)
eigval :       -0.00    -0.00     0.00     0.00     0.00     0.00
eigval :      109.01   115.82   185.99   227.63   234.28   412.51
eigval :      422.37   814.65   832.10   854.99   922.66   980.61
eigval :     1062.17  1092.31  1101.55  1155.58  1167.56  1197.20
eigval :     1242.50  1276.85  1315.78  1351.06  1401.73  1406.16
eigval :     1406.50  1485.79  1486.21  1493.73  1494.80  1498.89
eigval :     1500.94  2756.83  2763.88  2936.16  2939.20  3026.69
eigval :     3027.00  3044.42  3044.94  3054.42  3055.03  3346.45
 reduced masses (amu)
   1:  9.72   2:  9.88   3: 10.31   4:  7.58   5:  7.97   6: 10.58   7:  8.99   8:  5.21
   9:  8.84  10:  2.62  11:  2.70  12:  8.61  13:  9.66  14:  2.91  15:  1.94  16:  3.69
  17:  4.27  18:  6.16  19:  5.83  20:  5.93  21:  9.33  22:  8.05  23:  9.93  24:  6.76
  25:  3.07  26:  2.49  27:  3.27  28:  3.93  29:  3.34  30:  3.55  31:  3.52  32:  1.54
  33:  1.56  34:  1.55  35:  1.57  36:  1.85  37:  1.84  38:  1.73  39:  1.72  40:  1.66
  41:  1.63  42:  1.81  43:  1.82  44:  1.74  45:  1.74  46:  1.60  47:  1.58  48:  1.82
 IR intensities (km·mol⁻¹)
   1:  0.02   2:  0.10   3:  0.08   4:  0.80   5:  0.76   6:  0.04   7:  2.45   8:  0.89
   9:  2.07  10:  0.66  11:  1.77  12:  0.08  13:  0.02  14: 88.40  15:  0.43  16: 11.17
  17:  4.66  18:  0.14  19: 11.76  20:  7.56  21:  5.14  22: 62.06  23: 40.44  24: 13.13
  25:  1.52  26: 10.61  27: 23.64  28:  0.61  29: 16.47  30: 48.48  31:  0.15  32:  3.27
  33:  0.69  34:  1.70  35:  0.69  36:  4.47  37: 16.74  38: 19.90  39:384.37  40:  3.52
  41:165.08  42:  0.00  43:138.95  44: 74.05  45: 26.24  46:  4.81  47: 64.62  48: 17.21
 Raman intensities (amu)
   1:  0.00   2:  0.00   3:  0.00   4:  0.00   5:  0.00   6:  0.00   7:  0.00   8:  0.00
   9:  0.00  10:  0.00  11:  0.00  12:  0.00  13:  0.00  14:  0.00  15:  0.00  16:  0.00
  17:  0.00  18:  0.00  19:  0.00  20:  0.00  21:  0.00  22:  0.00  23:  0.00  24:  0.00
  25:  0.00  26:  0.00  27:  0.00  28:  0.00  29:  0.00  30:  0.00  31:  0.00  32:  0.00
  33:  0.00  34:  0.00  35:  0.00  36:  0.00  37:  0.00  38:  0.00  39:  0.00  40:  0.00
  41:  0.00  42:  0.00  43:  0.00  44:  0.00  45:  0.00  46:  0.00  47:  0.00  48:  0.00
 output can be read by thermo (or use thermo option).
 writing <g98.out> molden fake output.
 recommended (thermochemical) frequency scaling factor: 1.0
           -------------------------------------------------
          |             Thermodynamic Functions             |
           -------------------------------------------------

Molecule has the following symmetry elements: (sigma) 
It seems to be the Cs point group
cs  symmetry found (for desy threshold:  0.10E+00) used in thermo

          ...................................................
          :                      SETUP                      :
          :.................................................:
          :  # frequencies                          42      :
          :  # imaginary freq.                       0      :
          :  linear?                             false      :
          :  only rotor calc.                    false      :
          :  symmetry                               cs      :
          :  rotational number                       1      :
          :  scaling factor                  1.0000000      :
          :  rotor cutoff                   50.0000000 cm⁻¹ :
          :  imag. cutoff                  -20.0000000 cm⁻¹ :
          :.................................................:

    mode    ω/cm⁻¹     T·S(HO)/kcal·mol⁻¹    T·S(FR)/kcal·mol⁻¹   T·S(vib)
   ------------------------------------------------------------------------
       1    109.01    -0.97986 ( 95.76%)    -0.82539 (  4.24%)    -0.97331
       2    115.82    -0.94482 ( 96.64%)    -0.80745 (  3.36%)    -0.94021
       3    185.99    -0.67603 ( 99.48%)    -0.66723 (  0.52%)    -0.67598
       4    227.63    -0.56575 ( 99.77%)    -0.60741 (  0.23%)    -0.56584
       5    234.28    -0.55036 ( 99.79%)    -0.59889 (  0.21%)    -0.55046
   ------------------------------------------------------------------------

   temp. (K)  partition function   enthalpy   heat capacity  entropy
                                   cal/mol     cal/K/mol   cal/K/mol   J/K/mol
 298.15  VIB   32.0                 2603.845     17.777     15.582
         ROT  0.100E+06              888.752      2.981     25.861
         INT  0.320E+07             3492.598     20.758     41.443
         TR   0.605E+27             1481.254      4.968     38.768
         TOT                        4973.8515    25.7258    80.2110   335.6027

       T/K    H(0)-H(T)+PV         H(T)/Eh          T*S/Eh         G(T)/Eh
   ------------------------------------------------------------------------
    298.15    0.792634E-02    0.154287E+00    0.381108E-01    0.116176E+00
   ------------------------------------------------------------------------

         :::::::::::::::::::::::::::::::::::::::::::::::::::::
         ::                  THERMODYNAMIC                  ::
         :::::::::::::::::::::::::::::::::::::::::::::::::::::
         :: total free energy         -16.971740811060 Eh   ::
         ::.................................................::
         :: total energy              -17.087917070562 Eh   ::
         :: zero point energy           0.146360741896 Eh   ::
         :: G(RRHO) w/o ZPVE           -0.030184482394 Eh   ::
         :: G(RRHO) contrib.            0.116176259502 Eh   ::
         :::::::::::::::::::::::::::::::::::::::::::::::::::::

optimized geometry written to: xtbopt.xyz


           -------------------------------------------------
          | TOTAL ENERGY              -17.087917070562 Eh   |
          | TOTAL ENTHALPY            -16.933629991735 Eh   |
          | TOTAL FREE ENERGY         -16.971740811060 Eh   |
          | GRADIENT NORM               0.000291842515 Eh/α |
          | HOMO-LUMO GAP              10.704004565531 eV   |
           -------------------------------------------------

------------------------------------------------------------------------
 * finished run on 2021/11/15 at 09:36:19.682     
------------------------------------------------------------------------
 total:
 * wall-time:     0 d,  0 h,  0 min,  0.538 sec
 *  cpu-time:     0 d,  0 h,  0 min,  0.516 sec
 * ratio c/w:     0.959 speedup
 SCF:
 * wall-time:     0 d,  0 h,  0 min,  0.006 sec
 *  cpu-time:     0 d,  0 h,  0 min,  0.000 sec
 * ratio c/w:     0.000 speedup
 ANC optimizer:
 * wall-time:     0 d,  0 h,  0 min,  0.060 sec
 *  cpu-time:     0 d,  0 h,  0 min,  0.062 sec
 * ratio c/w:     1.038 speedup
 analytical hessian:
 * wall-time:     0 d,  0 h,  0 min,  0.435 sec
 *  cpu-time:     0 d,  0 h,  0 min,  0.438 sec
 * ratio c/w:     1.005 speedup

