 Entering Gaussian System
 *********************************************
 Gaussian 98:
 frequency output generated by the xtb code
 *********************************************
                         Standard orientation:
 --------------------------------------------------------------------
  Center     Atomic     Atomic              Coordinates (Angstroms)
  Number     Number      Type              X           Y           Z
 --------------------------------------------------------------------
    1          7             0        0.086226   -0.263899    0.000000
    2          1             0       -0.640215   -0.975552    0.000004
    3          6             0       -0.024653    0.527471    1.212148
    4          1             0        0.824980    1.218151    1.229571
    5          1             0       -0.947429    1.139499    1.222671
    6          6             0        0.011023   -0.366548    2.443198
    7          1             0        0.912788   -0.971361    2.433986
    8          1             0       -0.001027    0.239233    3.344793
    9          1             0       -0.851493   -1.029170    2.457511
   10          6             0       -0.024661    0.527466   -1.212150
   11          1             0        0.824971    1.218147   -1.229581
   12          1             0       -0.947437    1.139495   -1.222669
   13          6             0        0.011006   -0.366556   -2.443196
   14          1             0       -0.851510   -1.029179   -2.457502
   15          1             0       -0.001050    0.239222   -3.344794
   16          1             0        0.912771   -0.971370   -2.433989
 --------------------------------------------------------------------
     1 basis functions        1 primitive gaussians
     1 alpha electrons        1 beta electrons
 
 Harmonic frequencies (cm**-1), IR intensities (km*mol⁻¹),
 Raman scattering activities (A**4/amu), Raman depolarization ratios,
 reduced masses (AMU), force constants (mDyne/A) and normal coordinates:
                      1                      2                      3
                        a                      a                      a 
 Frequencies --   109.0107               115.8213               185.9909
 Red. masses --     8.9931                 5.2102                 8.8386
 Frc consts  --     0.0000                 0.0000                 0.0000
 IR Inten    --     2.4482                 0.8943                 2.0726
 Raman Activ --     0.0000                 0.0000                 0.0000
 Depolar     --     0.0000                 0.0000                 0.0000
 Atom AN      X      Y      Z        X      Y      Z        X      Y      Z
   1   7    -0.64  -0.05   0.00    -0.00  -0.00   0.01    -0.01  -0.45   0.00
   2   1    -0.28   0.10   0.00    -0.00   0.00  -0.07    -0.04  -0.09   0.00
   3   6    -0.07   0.00   0.01    -0.39  -0.03  -0.01     0.02  -0.19  -0.12
   4   1     0.01  -0.03  -0.09    -0.22   0.13  -0.02     0.01  -0.05  -0.10
   5   1     0.00   0.03   0.11    -0.21  -0.16   0.01     0.01  -0.05  -0.09
   6   6     0.34   0.01   0.01     0.19   0.01   0.01    -0.01   0.35   0.26
   7   1     0.07  -0.04  -0.12     0.19   0.21   0.03     0.02   0.13   0.19
   8   1     0.25   0.01   0.00    -0.11   0.01  -0.00    -0.05   0.23  -0.01
   9   1     0.07   0.05   0.12     0.21  -0.19  -0.02     0.02   0.08   0.14
  10   6    -0.07   0.00  -0.01     0.39   0.03  -0.01     0.02  -0.19   0.12
  11   1     0.01  -0.03   0.09     0.22  -0.13  -0.02     0.01  -0.05   0.10
  12   1     0.00   0.03  -0.11     0.21   0.16   0.01     0.01  -0.05   0.09
  13   6     0.34   0.01  -0.01    -0.19  -0.01   0.01    -0.01   0.35  -0.26
  14   1     0.07   0.05  -0.12    -0.21   0.19  -0.02     0.02   0.08  -0.14
  15   1     0.25   0.01  -0.00     0.11  -0.01  -0.00    -0.05   0.23   0.01
  16   1     0.07  -0.04   0.12    -0.19  -0.21   0.03     0.02   0.13  -0.19
                      4                      5                      6
                        a                      a                      a 
 Frequencies --   227.6338               234.2772               412.5080
 Red. masses --     2.6166                 2.6985                 8.6112
 Frc consts  --     0.0000                 0.0000                 0.0000
 IR Inten    --     0.6584                 1.7660                 0.0795
 Raman Activ --     0.0000                 0.0000                 0.0000
 Depolar     --     0.0000                 0.0000                 0.0000
 Atom AN      X      Y      Z        X      Y      Z        X      Y      Z
   1   7     0.00  -0.00  -0.03    -0.31   0.01   0.00    -0.00   0.00  -0.39
   2   1     0.00  -0.00   0.04    -0.19   0.11   0.00    -0.00  -0.00  -0.19
   3   6     0.27  -0.00  -0.00     0.13   0.03   0.03     0.03  -0.41  -0.12
   4   1     0.13  -0.07   0.01     0.09  -0.06  -0.01     0.00  -0.11  -0.03
   5   1     0.12   0.07  -0.00     0.09   0.08   0.05     0.01  -0.11  -0.02
   6   6    -0.04  -0.00   0.00     0.02  -0.04  -0.02    -0.01   0.06   0.27
   7   1     0.13   0.21   0.24     0.16   0.22   0.19    -0.01   0.00   0.21
   8   1    -0.39  -0.01   0.00    -0.36  -0.04   0.01     0.01   0.19  -0.04
   9   1     0.14  -0.20  -0.23     0.18  -0.24  -0.22    -0.02   0.04   0.20
  10   6    -0.27   0.00  -0.00     0.13   0.03  -0.03    -0.03   0.41  -0.12
  11   1    -0.13   0.07   0.01     0.09  -0.06   0.01    -0.00   0.11  -0.03
  12   1    -0.12  -0.07  -0.00     0.09   0.08  -0.05    -0.01   0.11  -0.02
  13   6     0.04   0.00   0.00     0.02  -0.04   0.02     0.01  -0.06   0.27
  14   1    -0.14   0.20  -0.23     0.18  -0.24   0.22     0.02  -0.04   0.20
  15   1     0.39   0.01   0.00    -0.36  -0.04  -0.01    -0.01  -0.19  -0.04
  16   1    -0.13  -0.21   0.24     0.16   0.22  -0.19     0.01  -0.00   0.21
                      7                      8                      9
                        a                      a                      a 
 Frequencies --   422.3743               814.6454               832.0960
 Red. masses --     9.6618                 2.9124                 1.9353
 Frc consts  --     0.0000                 0.0000                 0.0000
 IR Inten    --     0.0219                88.3992                 0.4263
 Raman Activ --     0.0000                 0.0000                 0.0000
 Depolar     --     0.0000                 0.0000                 0.0000
 Atom AN      X      Y      Z        X      Y      Z        X      Y      Z
   1   7    -0.01   0.31   0.00     0.18  -0.26  -0.00    -0.00   0.00  -0.01
   2   1     0.04   0.04   0.00    -0.51   0.48   0.00     0.00  -0.00   0.10
   3   6     0.01  -0.05   0.35     0.08   0.11   0.06     0.18   0.02  -0.01
   4   1    -0.00  -0.01   0.15    -0.15   0.22   0.00    -0.18   0.28  -0.11
   5   1     0.00  -0.02   0.16    -0.13  -0.21  -0.03    -0.16  -0.29   0.11
   6   6    -0.01  -0.10   0.45     0.02  -0.01   0.07     0.09  -0.01  -0.00
   7   1    -0.01  -0.04   0.17    -0.05  -0.08   0.04    -0.11  -0.20   0.22
   8   1     0.00   0.02   0.10    -0.03  -0.08   0.07    -0.11  -0.01   0.00
   9   1    -0.01  -0.02   0.16    -0.05   0.06  -0.11    -0.13   0.18  -0.21
  10   6     0.01  -0.05  -0.35     0.08   0.11  -0.06    -0.18  -0.02  -0.01
  11   1    -0.00  -0.01  -0.15    -0.15   0.22  -0.00     0.18  -0.28  -0.11
  12   1     0.00  -0.02  -0.16    -0.13  -0.21   0.03     0.16   0.29   0.11
  13   6    -0.01  -0.10  -0.45     0.02  -0.01  -0.07    -0.09   0.01  -0.00
  14   1    -0.01  -0.02  -0.16    -0.05   0.06   0.11     0.13  -0.18  -0.21
  15   1     0.00   0.02  -0.10    -0.03  -0.08  -0.07     0.11   0.01   0.00
  16   1    -0.01  -0.04  -0.17    -0.05  -0.08  -0.04     0.11   0.20   0.22
                     10                     11                     12
                        a                      a                      a 
 Frequencies --   854.9872               922.6568               980.6133
 Red. masses --     3.6929                 4.2682                 6.1601
 Frc consts  --     0.0000                 0.0000                 0.0000
 IR Inten    --    11.1725                 4.6602                 0.1372
 Raman Activ --     0.0000                 0.0000                 0.0000
 Depolar     --     0.0000                 0.0000                 0.0000
 Atom AN      X      Y      Z        X      Y      Z        X      Y      Z
   1   7    -0.22   0.24   0.00     0.11   0.29  -0.00     0.00   0.00   0.37
   2   1     0.18  -0.16  -0.00    -0.25   0.35   0.00     0.00  -0.00   0.16
   3   6     0.14  -0.11  -0.08    -0.00  -0.17  -0.10     0.00  -0.15   0.07
   4   1    -0.10   0.15  -0.15    -0.00  -0.04   0.18     0.00  -0.04   0.13
   5   1    -0.09  -0.20   0.19    -0.00  -0.04  -0.02    -0.00  -0.03   0.13
   6   6     0.11  -0.01  -0.10    -0.05  -0.10  -0.19     0.00  -0.02  -0.35
   7   1    -0.09  -0.18   0.28     0.05   0.06   0.09     0.02   0.03   0.13
   8   1    -0.11   0.11  -0.10     0.04   0.29  -0.26    -0.01   0.32  -0.31
   9   1    -0.12   0.18  -0.15     0.02  -0.06   0.25    -0.02   0.03   0.13
  10   6     0.14  -0.11   0.08    -0.00  -0.17   0.10    -0.00   0.15   0.07
  11   1    -0.10   0.15   0.15    -0.00  -0.04  -0.18    -0.00   0.04   0.13
  12   1    -0.09  -0.20  -0.19    -0.00  -0.04   0.02     0.00   0.03   0.13
  13   6     0.11  -0.01   0.10    -0.05  -0.10   0.19    -0.00   0.02  -0.35
  14   1    -0.12   0.18   0.15     0.02  -0.06  -0.25     0.02  -0.03   0.13
  15   1    -0.11   0.11   0.10     0.04   0.29   0.26     0.01  -0.32  -0.31
  16   1    -0.09  -0.18  -0.28     0.05   0.06  -0.09    -0.02  -0.03   0.13
                     13                     14                     15
                        a                      a                      a 
 Frequencies --  1062.1708              1092.3144              1101.5538
 Red. masses --     5.8347                 5.9289                 9.3292
 Frc consts  --     0.0000                 0.0000                 0.0000
 IR Inten    --    11.7552                 7.5625                 5.1384
 Raman Activ --     0.0000                 0.0000                 0.0000
 Depolar     --     0.0000                 0.0000                 0.0000
 Atom AN      X      Y      Z        X      Y      Z        X      Y      Z
   1   7    -0.00  -0.00  -0.14     0.00   0.00   0.11     0.02  -0.18   0.00
   2   1     0.00   0.00   0.33    -0.00  -0.00  -0.14    -0.00  -0.04  -0.00
   3   6     0.14   0.26  -0.17    -0.23   0.22  -0.18     0.00  -0.17   0.44
   4   1    -0.07   0.18   0.17     0.08  -0.10  -0.23     0.01  -0.06   0.18
   5   1    -0.05  -0.06  -0.17     0.05   0.23   0.14    -0.00  -0.07   0.19
   6   6    -0.10  -0.26   0.12     0.14  -0.23   0.09    -0.01   0.26  -0.27
   7   1     0.05   0.03   0.08    -0.03  -0.15   0.28    -0.00   0.07  -0.12
   8   1     0.05   0.09  -0.07    -0.07   0.08  -0.06    -0.01   0.05  -0.06
   9   1     0.04  -0.14   0.28    -0.05   0.05   0.03    -0.01   0.08  -0.12
  10   6    -0.14  -0.26  -0.17     0.23  -0.22  -0.18     0.00  -0.17  -0.44
  11   1     0.07  -0.18   0.17    -0.08   0.10  -0.23     0.01  -0.06  -0.18
  12   1     0.05   0.06  -0.17    -0.05  -0.23   0.14    -0.00  -0.07  -0.19
  13   6     0.10   0.26   0.12    -0.14   0.23   0.09    -0.01   0.26   0.27
  14   1    -0.04   0.14   0.28     0.05  -0.05   0.03    -0.01   0.08   0.12
  15   1    -0.05  -0.09  -0.07     0.07  -0.08  -0.06    -0.01   0.05   0.06
  16   1    -0.05  -0.03   0.08     0.03   0.15   0.28    -0.00   0.07   0.12
                     16                     17                     18
                        a                      a                      a 
 Frequencies --  1155.5836              1167.5619              1197.1988
 Red. masses --     8.0540                 9.9309                 6.7616
 Frc consts  --     0.0000                 0.0000                 0.0000
 IR Inten    --    62.0604                40.4445                13.1322
 Raman Activ --     0.0000                 0.0000                 0.0000
 Depolar     --     0.0000                 0.0000                 0.0000
 Atom AN      X      Y      Z        X      Y      Z        X      Y      Z
   1   7    -0.17   0.38   0.00    -0.00  -0.00  -0.60    -0.23  -0.23   0.00
   2   1     0.01   0.06   0.00    -0.00  -0.00  -0.24     0.13  -0.23  -0.00
   3   6     0.21  -0.33  -0.12    -0.05   0.23   0.35     0.30   0.22   0.09
   4   1    -0.07   0.06   0.03     0.01   0.02   0.23    -0.08   0.24   0.01
   5   1    -0.04  -0.18  -0.13     0.00   0.04   0.16    -0.06  -0.15   0.02
   6   6    -0.12   0.18   0.08     0.05   0.01  -0.10    -0.20  -0.11  -0.05
   7   1     0.01   0.10  -0.25    -0.00  -0.01   0.08     0.06   0.13  -0.06
   8   1     0.06  -0.15   0.15    -0.02   0.08  -0.07     0.08   0.09  -0.08
   9   1     0.05  -0.06  -0.07    -0.02   0.05   0.01     0.04  -0.14   0.23
  10   6     0.21  -0.33   0.12     0.05  -0.23   0.35     0.30   0.22  -0.09
  11   1    -0.07   0.06  -0.03    -0.01  -0.02   0.23    -0.08   0.24  -0.01
  12   1    -0.04  -0.18   0.13    -0.00  -0.04   0.16    -0.06  -0.15  -0.02
  13   6    -0.12   0.18  -0.08    -0.05  -0.01  -0.10    -0.20  -0.11   0.05
  14   1     0.05  -0.06   0.07     0.02  -0.05   0.01     0.04  -0.14  -0.23
  15   1     0.06  -0.15  -0.15     0.02  -0.08  -0.07     0.08   0.09   0.08
  16   1     0.01   0.10   0.25     0.00   0.01   0.08     0.06   0.13   0.06
                     19                     20                     21
                        a                      a                      a 
 Frequencies --  1242.4964              1276.8452              1315.7754
 Red. masses --     3.0686                 2.4885                 3.2655
 Frc consts  --     0.0000                 0.0000                 0.0000
 IR Inten    --     1.5212                10.6134                23.6386
 Raman Activ --     0.0000                 0.0000                 0.0000
 Depolar     --     0.0000                 0.0000                 0.0000
 Atom AN      X      Y      Z        X      Y      Z        X      Y      Z
   1   7    -0.00   0.00   0.02     0.26   0.05  -0.00     0.00   0.00   0.09
   2   1     0.00   0.00   0.19    -0.07   0.14  -0.00    -0.00  -0.00  -0.29
   3   6    -0.16  -0.07  -0.08    -0.02  -0.04  -0.02     0.05   0.03   0.28
   4   1     0.02  -0.10   0.40     0.03  -0.04  -0.45    -0.01   0.04  -0.26
   5   1     0.02   0.07  -0.33     0.01  -0.00   0.43     0.00  -0.01  -0.51
   6   6     0.23   0.04   0.02    -0.15   0.01   0.01     0.03  -0.11  -0.04
   7   1    -0.05  -0.15   0.13     0.02   0.09  -0.11     0.03   0.02   0.03
   8   1    -0.08  -0.04   0.04     0.04  -0.00   0.01    -0.00   0.11  -0.10
   9   1    -0.05   0.14  -0.16     0.03  -0.09   0.07    -0.04   0.04  -0.00
  10   6     0.16   0.07  -0.08    -0.02  -0.04   0.02    -0.05  -0.03   0.28
  11   1    -0.02   0.10   0.40     0.03  -0.04   0.45     0.01  -0.04  -0.26
  12   1    -0.02  -0.07  -0.33     0.01  -0.00  -0.43    -0.00   0.01  -0.51
  13   6    -0.23  -0.04   0.02    -0.15   0.01  -0.01    -0.03   0.11  -0.04
  14   1     0.05  -0.14  -0.16     0.03  -0.09  -0.07     0.04  -0.04  -0.00
  15   1     0.08   0.04   0.04     0.04  -0.00  -0.01     0.00  -0.11  -0.10
  16   1     0.05   0.15   0.13     0.02   0.09   0.11    -0.03  -0.02   0.03
                     22                     23                     24
                        a                      a                      a 
 Frequencies --  1351.0613              1401.7265              1406.1554
 Red. masses --     3.9342                 3.3366                 3.5450
 Frc consts  --     0.0000                 0.0000                 0.0000
 IR Inten    --     0.6127                16.4657                48.4849
 Raman Activ --     0.0000                 0.0000                 0.0000
 Depolar     --     0.0000                 0.0000                 0.0000
 Atom AN      X      Y      Z        X      Y      Z        X      Y      Z
   1   7    -0.00   0.13  -0.00    -0.00   0.00  -0.04    -0.00   0.00  -0.32
   2   1    -0.00   0.04  -0.00     0.00   0.00   0.13     0.00   0.00   0.75
   3   6    -0.00  -0.06   0.32    -0.02  -0.02   0.08    -0.13  -0.08   0.17
   4   1    -0.02   0.03  -0.38     0.02  -0.04  -0.11     0.01  -0.06  -0.26
   5   1     0.02   0.04  -0.39    -0.01  -0.02  -0.07     0.04   0.08  -0.01
   6   6     0.01  -0.11   0.02    -0.02   0.16  -0.27     0.03  -0.03   0.03
   7   1     0.05   0.06  -0.08    -0.08  -0.10   0.34     0.03   0.04  -0.09
   8   1    -0.02   0.16  -0.12     0.05  -0.30   0.19    -0.07   0.06  -0.04
   9   1    -0.06   0.07  -0.08     0.10  -0.11   0.29    -0.06   0.07  -0.04
  10   6    -0.00  -0.06  -0.32     0.02   0.02   0.08     0.13   0.08   0.17
  11   1    -0.02   0.03   0.38    -0.02   0.04  -0.11    -0.01   0.06  -0.26
  12   1     0.02   0.04   0.39     0.01   0.02  -0.07    -0.04  -0.08  -0.01
  13   6     0.01  -0.11  -0.02     0.02  -0.16  -0.27    -0.03   0.03   0.03
  14   1    -0.06   0.07   0.08    -0.10   0.11   0.29     0.06  -0.07  -0.04
  15   1    -0.02   0.16   0.12    -0.05   0.30   0.19     0.07  -0.06  -0.04
  16   1     0.05   0.06   0.08     0.08   0.10   0.34    -0.03  -0.04  -0.09
                     25                     26                     27
                        a                      a                      a 
 Frequencies --  1406.4969              1485.7924              1486.2089
 Red. masses --     3.5186                 1.5427                 1.5637
 Frc consts  --     0.0000                 0.0000                 0.0000
 IR Inten    --     0.1461                 3.2738                 0.6910
 Raman Activ --     0.0000                 0.0000                 0.0000
 Depolar     --     0.0000                 0.0000                 0.0000
 Atom AN      X      Y      Z        X      Y      Z        X      Y      Z
   1   7    -0.00  -0.07  -0.00     0.01  -0.01   0.00    -0.00   0.00   0.03
   2   1     0.01  -0.03   0.00    -0.00   0.00  -0.00     0.00  -0.00  -0.08
   3   6     0.00   0.03  -0.13    -0.03  -0.00  -0.01     0.04   0.02  -0.01
   4   1    -0.01   0.02   0.15    -0.01  -0.00   0.02     0.01   0.00  -0.00
   5   1     0.01   0.01   0.14     0.01   0.02  -0.00    -0.01  -0.04   0.00
   6   6     0.02  -0.15   0.27    -0.15  -0.02   0.02     0.15   0.03  -0.02
   7   1     0.07   0.10  -0.33     0.07   0.11   0.28    -0.08  -0.13  -0.28
   8   1    -0.06   0.29  -0.17     0.50   0.04  -0.02    -0.50  -0.03   0.02
   9   1    -0.10   0.11  -0.28     0.04  -0.08  -0.34    -0.03   0.06   0.34
  10   6     0.00   0.03   0.13    -0.03  -0.00   0.01    -0.04  -0.02  -0.01
  11   1    -0.01   0.02  -0.15    -0.01  -0.00  -0.02    -0.01  -0.00  -0.00
  12   1     0.01   0.01  -0.14     0.01   0.02   0.00     0.01   0.04   0.00
  13   6     0.02  -0.15  -0.27    -0.15  -0.02  -0.02    -0.15  -0.03  -0.02
  14   1    -0.10   0.11   0.28     0.04  -0.08   0.34     0.03  -0.06   0.34
  15   1    -0.06   0.29   0.17     0.50   0.04   0.02     0.50   0.03   0.02
  16   1     0.07   0.10   0.33     0.07   0.11  -0.28     0.08   0.13  -0.28
                     28                     29                     30
                        a                      a                      a 
 Frequencies --  1493.7309              1494.7995              1498.8897
 Red. masses --     1.5489                 1.5657                 1.8506
 Frc consts  --     0.0000                 0.0000                 0.0000
 IR Inten    --     1.7006                 0.6874                 4.4749
 Raman Activ --     0.0000                 0.0000                 0.0000
 Depolar     --     0.0000                 0.0000                 0.0000
 Atom AN      X      Y      Z        X      Y      Z        X      Y      Z
   1   7     0.00   0.00   0.03    -0.01  -0.01   0.00    -0.00   0.00   0.00
   2   1    -0.00   0.00  -0.02     0.01  -0.01   0.00     0.00   0.00   0.07
   3   6     0.00   0.05  -0.05     0.00   0.04   0.04    -0.02   0.18   0.01
   4   1     0.11  -0.14   0.02     0.01  -0.01  -0.02     0.28  -0.34  -0.03
   5   1    -0.10  -0.16   0.02    -0.01  -0.02  -0.03    -0.24  -0.37  -0.03
   6   6     0.01  -0.12  -0.06    -0.01   0.13   0.07    -0.01   0.05   0.05
   7   1     0.24   0.34   0.07    -0.26  -0.37  -0.09    -0.09  -0.12  -0.04
   8   1    -0.01  -0.17   0.10    -0.00   0.19  -0.11     0.02   0.09  -0.05
   9   1    -0.26   0.33   0.09     0.28  -0.35  -0.10     0.10  -0.13  -0.08
  10   6    -0.00  -0.05  -0.05     0.00   0.04  -0.04     0.02  -0.18   0.01
  11   1    -0.11   0.14   0.02     0.01  -0.01   0.02    -0.28   0.34  -0.03
  12   1     0.10   0.16   0.02    -0.01  -0.02   0.03     0.24   0.37  -0.03
  13   6    -0.01   0.12  -0.06    -0.01   0.13  -0.07     0.01  -0.05   0.05
  14   1     0.26  -0.33   0.09     0.28  -0.35   0.10    -0.10   0.13  -0.08
  15   1     0.01   0.17   0.10    -0.00   0.19   0.11    -0.02  -0.09  -0.05
  16   1    -0.24  -0.34   0.07    -0.26  -0.37   0.09     0.09   0.12  -0.04
                     31                     32                     33
                        a                      a                      a 
 Frequencies --  1500.9446              2756.8282              2763.8828
 Red. masses --     1.8413                 1.7321                 1.7156
 Frc consts  --     0.0000                 0.0000                 0.0000
 IR Inten    --    16.7354                19.8957               384.3675
 Raman Activ --     0.0000                 0.0000                 0.0000
 Depolar     --     0.0000                 0.0000                 0.0000
 Atom AN      X      Y      Z        X      Y      Z        X      Y      Z
   1   7     0.03  -0.06   0.00    -0.00  -0.00  -0.03     0.02  -0.02  -0.00
   2   1    -0.01   0.00   0.00     0.00  -0.00   0.00    -0.01   0.00   0.00
   3   6     0.00  -0.19   0.00     0.16  -0.07   0.01     0.16  -0.07   0.01
   4   1    -0.30   0.37   0.03    -0.03  -0.06   0.00    -0.04  -0.08  -0.00
   5   1     0.26   0.41   0.06    -0.57   0.36  -0.00    -0.57   0.37   0.01
   6   6     0.00   0.01  -0.01     0.00  -0.00   0.00     0.00  -0.00   0.00
   7   1    -0.02  -0.03   0.01     0.01  -0.01   0.00     0.01  -0.01   0.00
   8   1    -0.01  -0.01   0.00    -0.00  -0.00  -0.00    -0.00  -0.00  -0.01
   9   1     0.02  -0.02   0.02     0.00   0.01  -0.00     0.01   0.01  -0.00
  10   6     0.00  -0.19  -0.00    -0.16   0.07   0.01     0.16  -0.07  -0.01
  11   1    -0.30   0.37  -0.03     0.03   0.06   0.00    -0.04  -0.08   0.00
  12   1     0.26   0.41  -0.06     0.57  -0.36  -0.00    -0.57   0.37  -0.01
  13   6     0.00   0.01   0.01    -0.00   0.00   0.00     0.00  -0.00  -0.00
  14   1     0.02  -0.02  -0.02    -0.00  -0.01  -0.00     0.01   0.01   0.00
  15   1    -0.01  -0.01  -0.00     0.00   0.00  -0.00    -0.00  -0.00   0.01
  16   1    -0.02  -0.03  -0.01    -0.01   0.01   0.00     0.01  -0.01  -0.00
                     34                     35                     36
                        a                      a                      a 
 Frequencies --  2936.1599              2939.2027              3026.6947
 Red. masses --     1.6568                 1.6345                 1.8147
 Frc consts  --     0.0000                 0.0000                 0.0000
 IR Inten    --     3.5200               165.0755                 0.0007
 Raman Activ --     0.0000                 0.0000                 0.0000
 Depolar     --     0.0000                 0.0000                 0.0000
 Atom AN      X      Y      Z        X      Y      Z        X      Y      Z
   1   7     0.00   0.00   0.01    -0.00  -0.01   0.00    -0.00  -0.00   0.00
   2   1     0.00   0.00   0.01    -0.01  -0.01   0.00     0.00   0.00  -0.00
   3   6     0.13   0.12  -0.00    -0.12  -0.12   0.00     0.01   0.01   0.00
   4   1    -0.54  -0.42  -0.01     0.54   0.42   0.02    -0.03  -0.02  -0.00
   5   1     0.08  -0.02  -0.00    -0.10   0.03   0.00    -0.00   0.00   0.00
   6   6    -0.01  -0.00  -0.00     0.01   0.00   0.01     0.15   0.11   0.02
   7   1     0.00  -0.00  -0.00    -0.01   0.01   0.00    -0.03   0.05   0.01
   8   1    -0.00   0.01   0.01     0.00  -0.01  -0.02     0.02  -0.04  -0.07
   9   1     0.03   0.02  -0.00    -0.02  -0.02   0.00    -0.54  -0.41   0.00
  10   6    -0.13  -0.12  -0.00    -0.12  -0.12  -0.00    -0.01  -0.01   0.00
  11   1     0.54   0.42  -0.01     0.54   0.42  -0.02     0.03   0.02  -0.00
  12   1    -0.08   0.02  -0.00    -0.10   0.03  -0.00     0.00  -0.00   0.00
  13   6     0.01   0.00  -0.00     0.01   0.00  -0.01    -0.15  -0.11   0.02
  14   1    -0.03  -0.02  -0.00    -0.02  -0.02  -0.00     0.54   0.41   0.00
  15   1     0.00  -0.01   0.01     0.00  -0.01   0.02    -0.02   0.04  -0.07
  16   1    -0.00   0.00  -0.00    -0.01   0.01  -0.00     0.03  -0.05   0.01
                     37                     38                     39
                        a                      a                      a 
 Frequencies --  3026.9968              3044.4172              3044.9375
 Red. masses --     1.8185                 1.7420                 1.7449
 Frc consts  --     0.0000                 0.0000                 0.0000
 IR Inten    --   138.9520                74.0508                26.2378
 Raman Activ --     0.0000                 0.0000                 0.0000
 Depolar     --     0.0000                 0.0000                 0.0000
 Atom AN      X      Y      Z        X      Y      Z        X      Y      Z
   1   7    -0.00  -0.00  -0.00     0.00   0.00  -0.00    -0.00  -0.00   0.00
   2   1     0.00   0.00   0.00    -0.00  -0.00  -0.00     0.00   0.00  -0.00
   3   6     0.01   0.01  -0.00    -0.00   0.00   0.00    -0.00   0.01   0.00
   4   1    -0.03  -0.02  -0.00    -0.01  -0.01   0.00    -0.01  -0.01   0.00
   5   1    -0.00   0.00   0.00     0.01  -0.00   0.00     0.01  -0.01  -0.00
   6   6     0.16   0.11   0.02    -0.04   0.10   0.15    -0.04   0.10   0.15
   7   1    -0.04   0.06   0.01     0.08  -0.04   0.02     0.09  -0.05   0.02
   8   1     0.02  -0.04  -0.08     0.00  -0.38  -0.55     0.00  -0.38  -0.55
   9   1    -0.53  -0.41   0.00     0.06   0.07   0.02     0.06   0.07   0.02
  10   6     0.01   0.01   0.00     0.00  -0.00   0.00    -0.00   0.01  -0.00
  11   1    -0.03  -0.02   0.00     0.01   0.01   0.00    -0.01  -0.01  -0.00
  12   1    -0.00   0.00  -0.00    -0.01   0.00   0.00     0.01  -0.01   0.00
  13   6     0.16   0.11  -0.02     0.04  -0.10   0.15    -0.04   0.10  -0.15
  14   1    -0.53  -0.41  -0.00    -0.06  -0.07   0.02     0.06   0.07  -0.02
  15   1     0.02  -0.04   0.08    -0.00   0.38  -0.55     0.00  -0.38   0.55
  16   1    -0.04   0.06  -0.01    -0.08   0.04   0.02     0.09  -0.05  -0.02
                     40                     41                     42
                        a                      a                      a 
 Frequencies --  3054.4242              3055.0252              3346.4487
 Red. masses --     1.5958                 1.5836                 1.8237
 Frc consts  --     0.0000                 0.0000                 0.0000
 IR Inten    --     4.8050                64.6151                17.2050
 Raman Activ --     0.0000                 0.0000                 0.0000
 Depolar     --     0.0000                 0.0000                 0.0000
 Atom AN      X      Y      Z        X      Y      Z        X      Y      Z
   1   7    -0.00   0.00  -0.00     0.00   0.00   0.00    -0.17  -0.18   0.00
   2   1    -0.00  -0.00   0.00    -0.00  -0.00  -0.00     0.67   0.69  -0.00
   3   6     0.01  -0.00   0.00     0.01  -0.00   0.00    -0.01  -0.00  -0.00
   4   1    -0.00  -0.00  -0.00    -0.01  -0.00   0.00     0.01   0.00  -0.00
   5   1    -0.01   0.00   0.00    -0.01   0.00   0.00    -0.00   0.00   0.00
   6   6     0.13  -0.10   0.02     0.13  -0.10   0.02     0.00  -0.00  -0.00
   7   1    -0.56   0.37   0.02    -0.56   0.37   0.02    -0.00   0.00  -0.00
   8   1     0.02  -0.07  -0.08     0.02  -0.07  -0.08    -0.00   0.00   0.00
   9   1     0.08   0.03   0.00     0.09   0.04   0.00     0.00   0.00  -0.00
  10   6    -0.01   0.00   0.00     0.01  -0.00  -0.00    -0.01  -0.00   0.00
  11   1     0.00   0.00  -0.00    -0.01  -0.00  -0.00     0.01   0.00   0.00
  12   1     0.01  -0.00   0.00    -0.01   0.00  -0.00    -0.00   0.00  -0.00
  13   6    -0.13   0.09   0.02     0.13  -0.10  -0.02     0.00  -0.00   0.00
  14   1    -0.08  -0.03   0.00     0.09   0.04  -0.00     0.00   0.00   0.00
  15   1    -0.02   0.07  -0.08     0.02  -0.07   0.08    -0.00   0.00  -0.00
  16   1     0.56  -0.37   0.02    -0.56   0.37  -0.02    -0.00   0.00   0.00
