      -----------------------------------------------------------      
     |                   =====================                   |     
     |                           x T B                           |     
     |                   =====================                   |     
     |                         S. Grimme                         |     
     |          Mulliken Center for Theoretical Chemistry        |     
     |                    University of Bonn                     |     
      -----------------------------------------------------------      

   * xtb version 6.4.1 (afa7bdf) compiled by 'ehlert@majestix' on 2021-06-10

   xtb is free software: you can redistribute it and/or modify it under
   the terms of the GNU Lesser General Public License as published by
   the Free Software Foundation, either version 3 of the License, or
   (at your option) any later version.
   
   xtb is distributed in the hope that it will be useful,
   but WITHOUT ANY WARRANTY; without even the implied warranty of
   MERCHANTABILITY or FITNESS FOR A PARTICULAR PURPOSE.  See the
   GNU Lesser General Public License for more details.
   
   Cite this work as:
   * C. Bannwarth, E. Caldeweyher, S. Ehlert, A. Hansen, P. Pracht,
     J. Seibert, S. Spicher, S. Grimme, WIREs Comput. Mol. Sci., 2020, 11,
     e01493. DOI: 10.1002/wcms.1493
   
   for GFN2-xTB:
   * C. Bannwarth, S. Ehlert and S. Grimme., J. Chem. Theory Comput., 2019,
     15, 1652-1671. DOI: 10.1021/acs.jctc.8b01176
   for GFN1-xTB:
   * S. Grimme, C. Bannwarth, P. Shushkov, J. Chem. Theory Comput., 2017,
     13, 1989-2009. DOI: 10.1021/acs.jctc.7b00118
   for GFN0-xTB:
   * P. Pracht, E. Caldeweyher, S. Ehlert, S. Grimme, ChemRxiv, 2019, preprint.
     DOI: 10.26434/chemrxiv.8326202.v1
   for GFN-FF:
   * S. Spicher and S. Grimme, Angew. Chem. Int. Ed., 2020, 59, 15665-15673.
     DOI: 10.1002/anie.202004239
   
   for DFT-D4:
   * E. Caldeweyher, C. Bannwarth and S. Grimme, J. Chem. Phys., 2017,
     147, 034112. DOI: 10.1063/1.4993215
   * E. Caldeweyher, S. Ehlert, A. Hansen, H. Neugebauer, S. Spicher,
     C. Bannwarth and S. Grimme, J. Chem. Phys., 2019, 150, 154122.
     DOI: 10.1063/1.5090222
   * E. Caldeweyher, J.-M. Mewes, S. Ehlert and S. Grimme, Phys. Chem. Chem. Phys.
     2020, 22, 8499-8512. DOI: 10.1039/D0CP00502A
   
   for sTDA-xTB:
   * S. Grimme and C. Bannwarth, J. Chem. Phys., 2016, 145, 054103.
     DOI: 10.1063/1.4959605
   
   in the mass-spec context:
   * V. Asgeirsson, C. Bauer and S. Grimme, Chem. Sci., 2017, 8, 4879.
     DOI: 10.1039/c7sc00601b
   * J. Koopman and S. Grimme, ACS Omega 2019, 4, 12, 15120-15133.
     DOI: 10.1021/acsomega.9b02011
   
   for metadynamics refer to:
   * S. Grimme, J. Chem. Theory Comput., 2019, 155, 2847-2862
     DOI: 10.1021/acs.jctc.9b00143
   
   for SPH calculations refer to:
   * S. Spicher and S. Grimme, J. Chem. Theory Comput., 2021, 17, 1701-1714
     DOI: 10.1021/acs.jctc.0c01306
   
   with help from (in alphabetical order)
   P. Atkinson, C. Bannwarth, F. Bohle, G. Brandenburg, E. Caldeweyher
   M. Checinski, S. Dohm, S. Ehlert, S. Ehrlich, I. Gerasimov, J. Koopman
   C. Lavigne, S. Lehtola, F. März, M. Müller, F. Musil, H. Neugebauer
   J. Pisarek, C. Plett, P. Pracht, J. Seibert, P. Shushkov, S. Spicher
   M. Stahn, M. Steiner, T. Strunk, J. Stückrath, T. Rose, and J. Unsleber
   
 * started run on 2021/11/15 at 09:36:18.845     

           -------------------------------------------------
          |                Calculation Setup                |
           -------------------------------------------------

          program call               : xtb 24_2-chloroaniline.xyz --gfn2 --chrg 0 --uhf 0 --alpb water --ohess -P 1
          coordinate file            : 24_2-chloroaniline.xyz
          omp threads                :                     1
          number of atoms            :                    14
          number of electrons        :                    42
          charge                     :                     0
          spin                       :                   0.0
          first test random number   :      0.65231400981857

   ID    Z sym.   atoms
    1    6 C      1-6
    2    1 H      7, 9-13
    3    7 N      8
    4   17 Cl     14

           -------------------------------------------------
          |                 G F N 2 - x T B                 |
           -------------------------------------------------

        Reference                      10.1021/acs.jctc.8b01176
      * Hamiltonian:
        H0-scaling (s, p, d)           1.850000    2.230000    2.230000
        zeta-weighting                 0.500000
      * Dispersion:
        s8                             2.700000
        a1                             0.520000
        a2                             5.000000
        s9                             5.000000
      * Repulsion:
        kExp                           1.500000    1.000000
        rExp                           1.000000
      * Coulomb:
        alpha                          2.000000
        third order                    shell-resolved
        anisotropic                    true
        a3                             3.000000
        a5                             4.000000
        cn-shift                       1.200000
        cn-exp                         4.000000
        max-rad                        5.000000

      * Solvation model:               ALPB
        Solvent                        water
        Parameter file                 internal GFN2-xTB/ALPB
        Dielectric constant                8.0200E+01
        Reference state                gsolv [1 M gas/solution]
        Free energy shift                  1.0808E-03 Eh       6.7819E-01 kcal/mol
        Temperature                        2.9815E+02 K
        Density                            1.0000E+00 kg/L
        Solvent mass                       1.8000E+01 g/mol
        Interaction kernel             P16
        Born radius scaling (c1)           1.4744E+00
        Born radii integrator          GBOBC
        Born offset                        0.0000E+00 a0       0.0000E+00 AA
        H-bond correction              true
        Ion screening                  false
        Surface tension                    1.0000E-05 Eh       1.5569E+01 dyn/cm
        Grid points                               230 per atom

          ...................................................
          :                      SETUP                      :
          :.................................................:
          :  # basis functions                  44          :
          :  # atomic orbitals                  43          :
          :  # shells                           23          :
          :  # electrons                        42          :
          :  max. iterations                   250          :
          :  Hamiltonian                  GFN2-xTB          :
          :  restarted?                      false          :
          :  GBSA solvation                   true          :
          :  PC potential                    false          :
          :  electronic temp.          300.0000000     K    :
          :  accuracy                    1.0000000          :
          :  -> integral cutoff          0.2500000E+02      :
          :  -> integral neglect         0.1000000E-07      :
          :  -> SCF convergence          0.1000000E-05 Eh   :
          :  -> wf. convergence          0.1000000E-03 e    :
          :  Broyden damping             0.4000000          :
          ...................................................

 iter      E             dE          RMSdq      gap      omega  full diag
   1    -23.6871398 -0.236871E+02  0.465E+00    3.34       0.0  T
   2    -23.6985066 -0.113668E-01  0.278E+00    3.68       1.0  T
   3    -23.6964570  0.204958E-02  0.786E-01    3.75       1.0  T
   4    -23.6998743 -0.341734E-02  0.251E-01    3.70       1.0  T
   5    -23.7002481 -0.373746E-03  0.111E-01    3.72       1.0  T
   6    -23.7002758 -0.276581E-04  0.797E-02    3.71       1.0  T
   7    -23.7002929 -0.171631E-04  0.557E-02    3.71       1.0  T
   8    -23.7003102 -0.173231E-04  0.277E-02    3.71       1.0  T
   9    -23.7003127 -0.246003E-05  0.137E-02    3.71       1.9  T
  10    -23.7003143 -0.157478E-05  0.511E-03    3.71       5.2  T
  11    -23.7003143 -0.621641E-07  0.336E-03    3.71       8.0  T
  12    -23.7003144 -0.483772E-07  0.187E-03    3.71      14.3  T
  13    -23.7003144 -0.179697E-07  0.118E-03    3.71      22.6  T
  14    -23.7003144 -0.890403E-08  0.348E-04    3.71      76.7  T
  15    -23.7003144 -0.392053E-09  0.185E-04    3.71     144.3  T

   *** convergence criteria satisfied after 15 iterations ***

         #    Occupation            Energy/Eh            Energy/eV
      -------------------------------------------------------------
         1        2.0000           -1.0600905             -28.8465
       ...           ...                  ...                  ...
        15        2.0000           -0.4481065             -12.1936
        16        2.0000           -0.4436218             -12.0716
        17        2.0000           -0.4385312             -11.9330
        18        2.0000           -0.4302219             -11.7069
        19        2.0000           -0.4196612             -11.4196
        20        2.0000           -0.3975261             -10.8172
        21        2.0000           -0.3642274              -9.9111 (HOMO)
        22                         -0.2280446              -6.2054 (LUMO)
        23                         -0.2164032              -5.8886
        24                         -0.1453006              -3.9538
        25                         -0.0997065              -2.7132
        26                          0.0139286               0.3790
       ...                                ...                  ...
        43                          0.6309996              17.1704
      -------------------------------------------------------------
                  HL-Gap            0.1361828 Eh            3.7057 eV
             Fermi-level           -0.2961360 Eh           -8.0583 eV

 SCC (total)                   0 d,  0 h,  0 min,  0.010 sec
 SCC setup                      ...        0 min,  0.000 sec (  3.826%)
 Dispersion                     ...        0 min,  0.000 sec (  0.974%)
 classical contributions        ...        0 min,  0.000 sec (  0.211%)
 integral evaluation            ...        0 min,  0.001 sec ( 14.937%)
 iterations                     ...        0 min,  0.005 sec ( 52.113%)
 molecular gradient             ...        0 min,  0.003 sec ( 26.222%)
 printout                       ...        0 min,  0.000 sec (  1.519%)

         :::::::::::::::::::::::::::::::::::::::::::::::::::::
         ::                     SUMMARY                     ::
         :::::::::::::::::::::::::::::::::::::::::::::::::::::
         :: total energy             -23.375989950954 Eh    ::
         :: total w/o Gsasa/hb       -23.371418187586 Eh    ::
         :: gradient norm              0.017388585126 Eh/a0 ::
         :: HOMO-LUMO gap              3.705723051032 eV    ::
         ::.................................................::
         :: SCC energy               -23.700314412660 Eh    ::
         :: -> isotropic ES            0.017337282369 Eh    ::
         :: -> anisotropic ES          0.000612347276 Eh    ::
         :: -> anisotropic XC          0.012027060633 Eh    ::
         :: -> dispersion             -0.011928191255 Eh    ::
         :: -> Gsolv                  -0.008683535311 Eh    ::
         ::    -> Gelec               -0.004111771944 Eh    ::
         ::    -> Gsasa               -0.002505151097 Eh    ::
         ::    -> Ghb                 -0.003147371969 Eh    ::
         ::    -> Gshift               0.001080759698 Eh    ::
         :: repulsion energy           0.324298281974 Eh    ::
         :: add. restraining           0.000000000000 Eh    ::
         :: total charge              -0.000000000000 e     ::
         :::::::::::::::::::::::::::::::::::::::::::::::::::::

      ----------------------------------------------------------- 
     |                   =====================                   |
     |                        A N C O P T                        |
     |                   =====================                   |
     |               Approximate Normal Coordinate               |
     |                Rational Function Optimizer                |
      ----------------------------------------------------------- 

          ...................................................
          :                      SETUP                      :
          :.................................................:
          :   optimization level            normal          :
          :   max. optcycles                   200          :
          :   ANC micro-cycles                  20          :
          :   degrees of freedom                36          :
          :.................................................:
          :   RF solver                   davidson          :
          :   write xtbopt.log                true          :
          :   linear?                        false          :
          :   energy convergence         0.5000000E-05 Eh   :
          :   grad. convergence          0.1000000E-02 Eh/α :
          :   maximium RF displ.         1.0000000          :
          :   Hlow (freq-cutoff)         0.1000000E-01      :
          :   Hmax (freq-cutoff)         5.0000000          :
          :   S6 in model hess.         20.0000000          :
          ...................................................

generating ANC from model Hessian ...
Using Lindh-Hessian (1995)
 Shifting diagonal of input Hessian by   3.350223106856608E-003
 Lowest  eigenvalues of input Hessian
    0.000000    0.000000    0.000000    0.000000    0.000000    0.000000
    0.010000    0.014399    0.017391    0.023309    0.024614    0.028134
    0.049726    0.057573    0.067956    0.077229    0.098077    0.099772
 Highest eigenvalues
    1.443072    1.598172    1.743178    1.850032    1.957107    2.043985
 

........................................................................
.............................. CYCLE    1 ..............................
........................................................................
   1    -23.7003144 -0.237003E+02  0.651E-05    3.71       0.0  T
   2    -23.7003144 -0.165237E-10  0.411E-05    3.71     649.6  T
   3    -23.7003144 -0.436629E-11  0.303E-05    3.71     881.2  T
     SCC iter.                  ...        0 min,  0.002 sec
     gradient                   ...        0 min,  0.004 sec
 * total energy  :   -23.3759900 Eh     change       -0.1718625E-09 Eh
   gradient norm :     0.0173882 Eh/α   predicted     0.0000000E+00 (-100.00%)
   displ. norm   :     0.1107078 α      lambda       -0.1408027E-02
   maximum displ.:     0.0466041 α      in ANC's #3, #18, #1, ...

........................................................................
.............................. CYCLE    2 ..............................
........................................................................
   1    -23.7147310 -0.237147E+02  0.125E-01    3.73       0.0  T
   2    -23.7147401 -0.914713E-05  0.744E-02    3.74       1.0  T
   3    -23.7147362  0.389152E-05  0.353E-02    3.74       1.0  T
   4    -23.7147444 -0.821628E-05  0.992E-03    3.74       2.7  T
   5    -23.7147447 -0.224161E-06  0.796E-03    3.74       3.4  T
   6    -23.7147450 -0.306444E-06  0.435E-03    3.74       6.1  T
   7    -23.7147451 -0.136531E-06  0.188E-03    3.74      14.2  T
   8    -23.7147451 -0.123574E-07  0.898E-04    3.74      29.8  T
   9    -23.7147451 -0.428236E-08  0.494E-04    3.74      54.1  T
     SCC iter.                  ...        0 min,  0.004 sec
     gradient                   ...        0 min,  0.003 sec
 * total energy  :   -23.3768865 Eh     change       -0.8965667E-03 Eh
   gradient norm :     0.0080708 Eh/α   predicted    -0.7126425E-03 ( -20.51%)
   displ. norm   :     0.0780682 α      lambda       -0.3150732E-03
   maximum displ.:     0.0416414 α      in ANC's #1, #3, #19, ...

........................................................................
.............................. CYCLE    3 ..............................
........................................................................
   1    -23.7195174 -0.237195E+02  0.762E-02    3.72       0.0  T
   2    -23.7195257 -0.833232E-05  0.435E-02    3.74       1.0  T
   3    -23.7195263 -0.619089E-06  0.263E-02    3.74       1.0  T
   4    -23.7195288 -0.250740E-05  0.881E-03    3.74       3.0  T
   5    -23.7195290 -0.174414E-06  0.711E-03    3.74       3.8  T
   6    -23.7195292 -0.186016E-06  0.458E-03    3.74       5.8  T
   7    -23.7195293 -0.147074E-06  0.175E-03    3.74      15.2  T
   8    -23.7195293 -0.112876E-07  0.840E-04    3.74      31.8  T
   9    -23.7195293 -0.385408E-08  0.443E-04    3.74      60.3  T
     SCC iter.                  ...        0 min,  0.003 sec
     gradient                   ...        0 min,  0.003 sec
 * total energy  :   -23.3771036 Eh     change       -0.2170913E-03 Eh
   gradient norm :     0.0062495 Eh/α   predicted    -0.1584986E-03 ( -26.99%)
   displ. norm   :     0.0784352 α      lambda       -0.1837691E-03
   maximum displ.:     0.0446805 α      in ANC's #1, #3, #19, ...

........................................................................
.............................. CYCLE    4 ..............................
........................................................................
   1    -23.7205386 -0.237205E+02  0.715E-02    3.70       0.0  T
   2    -23.7205480 -0.936929E-05  0.399E-02    3.72       1.0  T
   3    -23.7205492 -0.119095E-05  0.254E-02    3.71       1.1  T
   4    -23.7205512 -0.198560E-05  0.862E-03    3.72       3.1  T
   5    -23.7205513 -0.171330E-06  0.678E-03    3.72       3.9  T
   6    -23.7205515 -0.146352E-06  0.459E-03    3.72       5.8  T
   7    -23.7205516 -0.134037E-06  0.201E-03    3.72      13.3  T
   8    -23.7205516 -0.172702E-07  0.842E-04    3.72      31.7  T
   9    -23.7205516 -0.340819E-08  0.451E-04    3.72      59.2  T
     SCC iter.                  ...        0 min,  0.003 sec
     gradient                   ...        0 min,  0.003 sec
 * total energy  :   -23.3772254 Eh     change       -0.1217890E-03 Eh
   gradient norm :     0.0053384 Eh/α   predicted    -0.9245019E-04 ( -24.09%)
   displ. norm   :     0.0410697 α      lambda       -0.8174873E-04
   maximum displ.:     0.0240163 α      in ANC's #1, #19, #4, ...

........................................................................
.............................. CYCLE    5 ..............................
........................................................................
   1    -23.7199444 -0.237199E+02  0.450E-02    3.69       0.0  T
   2    -23.7199477 -0.330775E-05  0.255E-02    3.70       1.0  T
   3    -23.7199480 -0.353017E-06  0.158E-02    3.70       1.7  T
   4    -23.7199488 -0.780413E-06  0.433E-03    3.70       6.2  T
   5    -23.7199489 -0.426470E-07  0.320E-03    3.70       8.3  T
   6    -23.7199489 -0.269759E-07  0.223E-03    3.70      12.0  T
   7    -23.7199489 -0.260393E-07  0.118E-03    3.70      22.6  T
   8    -23.7199489 -0.634528E-08  0.452E-04    3.70      59.1  T
   9    -23.7199489 -0.999215E-09  0.213E-04    3.70     125.6  T
     SCC iter.                  ...        0 min,  0.003 sec
     gradient                   ...        0 min,  0.003 sec
 * total energy  :   -23.3772801 Eh     change       -0.5472816E-04 Eh
   gradient norm :     0.0026357 Eh/α   predicted    -0.4094263E-04 ( -25.19%)
   displ. norm   :     0.0258526 α      lambda       -0.2513591E-04
   maximum displ.:     0.0128657 α      in ANC's #1, #8, #15, ...

........................................................................
.............................. CYCLE    6 ..............................
........................................................................
   1    -23.7194175 -0.237194E+02  0.287E-02    3.69       0.0  T
   2    -23.7194184 -0.949059E-06  0.163E-02    3.69       1.6  T
   3    -23.7194185 -0.408317E-07  0.989E-03    3.69       2.7  T
   4    -23.7194188 -0.368466E-06  0.231E-03    3.69      11.6  T
   5    -23.7194188 -0.988406E-08  0.162E-03    3.69      16.5  T
   6    -23.7194188 -0.648997E-08  0.105E-03    3.69      25.5  T
   7    -23.7194188 -0.472892E-08  0.610E-04    3.69      43.8  T
   8    -23.7194188 -0.148217E-08  0.191E-04    3.69     140.1  T
     SCC iter.                  ...        0 min,  0.003 sec
     gradient                   ...        0 min,  0.003 sec
 * total energy  :   -23.3772959 Eh     change       -0.1576540E-04 Eh
   gradient norm :     0.0013555 Eh/α   predicted    -0.1257650E-04 ( -20.23%)
   displ. norm   :     0.0169489 α      lambda       -0.5291427E-05
   maximum displ.:     0.0062857 α      in ANC's #2, #19, #1, ...

........................................................................
.............................. CYCLE    7 ..............................
........................................................................
   1    -23.7195546 -0.237196E+02  0.203E-02    3.68       0.0  T
   2    -23.7195550 -0.473230E-06  0.117E-02    3.69       2.3  T
   3    -23.7195551 -0.517934E-07  0.708E-03    3.69       3.8  T
   4    -23.7195553 -0.185033E-06  0.158E-03    3.69      16.9  T
   5    -23.7195553 -0.470050E-08  0.111E-03    3.69      24.1  T
   6    -23.7195553 -0.357934E-08  0.696E-04    3.69      38.4  T
   7    -23.7195553 -0.207006E-08  0.445E-04    3.69      60.1  T
     SCC iter.                  ...        0 min,  0.003 sec
     gradient                   ...        0 min,  0.003 sec
 * total energy  :   -23.3772998 Eh     change       -0.3934901E-05 Eh
   gradient norm :     0.0006946 Eh/α   predicted    -0.2644610E-05 ( -32.79%)
   displ. norm   :     0.0042747 α      lambda       -0.8405789E-06
   maximum displ.:     0.0017643 α      in ANC's #6, #1, #17, ...

   *** GEOMETRY OPTIMIZATION CONVERGED AFTER 7 ITERATIONS ***

------------------------------------------------------------------------
 total energy gain   :        -0.0013099 Eh       -0.8220 kcal/mol
 total RMSD          :         0.0826929 a0        0.0438 Å
 total power (kW/mol):        -0.4912969 (step)  -61.7872 (real)
------------------------------------------------------------------------

 ANCopt (total)                0 d,  0 h,  0 min,  0.056 sec
 optimizer setup                ...        0 min,  0.000 sec (  0.295%)
 model hessian                  ...        0 min,  0.001 sec (  1.659%)
 ANC generation                 ...        0 min,  0.000 sec (  0.345%)
 coordinate transformation      ...        0 min,  0.000 sec (  0.085%)
 single point calculation       ...        0 min,  0.052 sec ( 93.237%)
 optimization log               ...        0 min,  0.001 sec (  2.351%)
 hessian update                 ...        0 min,  0.000 sec (  0.081%)
 rational function              ...        0 min,  0.001 sec (  1.150%)

================
 final structure:
================
14
 xtb: 6.4.1 (afa7bdf)
C        -1.82377111042080   -1.28832213857840   -0.00539625886478
C        -2.35053742229217   -0.00611015078701   -0.00093140024715
C        -1.51887781748355    1.09368751381262    0.01474087301074
C        -0.12509620908796    0.95430094616726    0.02355826977487
C         0.37705495666470   -0.35322522735182    0.02049341686230
C        -0.44946938750192   -1.45815332127043    0.00599931361449
H        -0.01712295450853   -2.44700276925258    0.00576215585669
N         0.69515150653916    2.04285828397634   -0.02654538792623
H         0.30199652570110    2.93065099433112    0.23249426900630
H         1.66502848256614    1.89243931516583    0.19447317987178
H        -1.93488365066145    2.08955661987280    0.01759564036933
H        -3.42037097035882    0.13574522676320   -0.00697889739315
H        -2.47069692109584   -2.15045722946533   -0.01644894837775
Cl        2.11253497193996   -0.59920006338360    0.04249777444256
 
 Bond Distances (Angstroems)
 ---------------------------
C1-C2=1.3862         C1-C6=1.3848         C1-H13=1.0779        C2-C1=1.3862         C2-C3=1.3789         C2-H12=1.0792        
C3-C2=1.3789         C3-C4=1.4008         C3-H11=1.0793        C4-C3=1.4008         C4-C5=1.4006         C4-N8=1.3639         
C5-C4=1.4006         C5-C6=1.3799         C5-Cl14=1.7530       C6-C1=1.3848         C6-C5=1.3799         C6-H7=1.0792         
H7-C6=1.0792         N8-C4=1.3639         N8-H9=1.0049         N8-H10=1.0060        H9-N8=1.0049         H10-N8=1.0060        
H11-C3=1.0793        H12-C2=1.0792        H13-C1=1.0779        Cl14-C5=1.7530       
 C  H  Rav=1.0789 sigma=0.0006  Rmin=1.0779  Rmax=1.0793     4
 C  C  Rav=1.3885 sigma=0.0090  Rmin=1.3789  Rmax=1.4008     6
 N  H  Rav=1.0055 sigma=0.0006  Rmin=1.0049  Rmax=1.0060     2
 N  C  Rav=1.3639 sigma=0.0000  Rmin=1.3639  Rmax=1.3639     1
 Cl C  Rav=1.7530 sigma=0.0000  Rmin=1.7530  Rmax=1.7530     1
 
 selected bond angles (degree)
 --------------------
C6-C1-C2=119.38                H13-C1-C2=120.78               H13-C1-C6=119.84               C3-C2-C1=120.57                
H12-C2-C1=119.89               H12-C2-C3=119.54               C4-C3-C2=121.39                H11-C3-C2=120.23               
H11-C3-C4=118.38               C5-C4-C3=116.72                N8-C4-C3=121.25                N8-C4-C5=121.96                
C6-C5-C4=122.19                Cl14-C5-C4=119.07              Cl14-C5-C6=118.74              C5-C6-C1=119.76                
H7-C6-C1=120.66                H7-C6-C5=119.58                H9-N8-C4=117.41                H10-N8-C4=116.90               
H10-N8-H9=116.91               
 
 selected dihedral angles (degree)
 ---------------------------------
C3-C2-C1-C6=  0.00            C3-C2-C1-H13=179.93           H12-C2-C1-C6=180.17           H12-C2-C1-H13=  0.10          
C4-C3-C2-C1=  0.15            C4-C3-C2-H12=179.97           H11-C3-C2-C1=179.97           H11-C3-C2-H12=359.80          
C5-C4-C3-C2=359.78            C5-C4-C3-H11=179.95           N8-C4-C3-C2=176.78            N8-C4-C3-H11=356.95           
C6-C5-C4-C3=  0.17            C6-C5-C4-N8=183.19            Cl14-C5-C4-C3=180.43          Cl14-C5-C4-N8=  3.45          
C5-C6-C1-C2=359.95            C5-C6-C1-H13=180.02           H7-C6-C1-C2=179.82            H7-C6-C1-H13=359.89           
C1-C6-C5-C4=359.97            C1-C6-C5-Cl14=179.71          H7-C6-C5-C4=180.10            H7-C6-C5-Cl14=359.84          
H9-N8-C4-C3= 19.74            H9-N8-C4-C5=196.57            H10-N8-C4-C3=166.32           H10-N8-C4-C5=343.16           
           -------------------------------------------------
          |                Final Singlepoint                |
           -------------------------------------------------

          ...................................................
          :                      SETUP                      :
          :.................................................:
          :  # basis functions                  44          :
          :  # atomic orbitals                  43          :
          :  # shells                           23          :
          :  # electrons                        42          :
          :  max. iterations                   250          :
          :  Hamiltonian                  GFN2-xTB          :
          :  restarted?                      false          :
          :  GBSA solvation                   true          :
          :  PC potential                    false          :
          :  electronic temp.          300.0000000     K    :
          :  accuracy                    1.0000000          :
          :  -> integral cutoff          0.2500000E+02      :
          :  -> integral neglect         0.1000000E-07      :
          :  -> SCF convergence          0.1000000E-05 Eh   :
          :  -> wf. convergence          0.1000000E-03 e    :
          :  Broyden damping             0.4000000          :
          ...................................................

 iter      E             dE          RMSdq      gap      omega  full diag
   1    -23.7195553 -0.237196E+02  0.144E-04    3.69       0.0  T
   2    -23.7195553 -0.994689E-10  0.102E-04    3.69     262.8  T
   3    -23.7195553 -0.370299E-10  0.823E-05    3.69     324.6  T

   *** convergence criteria satisfied after 3 iterations ***

         #    Occupation            Energy/Eh            Energy/eV
      -------------------------------------------------------------
         1        2.0000           -1.0603946             -28.8548
       ...           ...                  ...                  ...
        15        2.0000           -0.4484953             -12.2042
        16        2.0000           -0.4431326             -12.0583
        17        2.0000           -0.4394474             -11.9580
        18        2.0000           -0.4289637             -11.6727
        19        2.0000           -0.4190585             -11.4032
        20        2.0000           -0.3969494             -10.8015
        21        2.0000           -0.3596038              -9.7853 (HOMO)
        22                         -0.2241019              -6.0981 (LUMO)
        23                         -0.2100094              -5.7146
        24                         -0.1412264              -3.8430
        25                         -0.0920619              -2.5051
        26                          0.0130592               0.3554
       ...                                ...                  ...
        43                          0.6594428              17.9444
      -------------------------------------------------------------
                  HL-Gap            0.1355020 Eh            3.6872 eV
             Fermi-level           -0.2918529 Eh           -7.9417 eV

 SCC (total)                   0 d,  0 h,  0 min,  0.006 sec
 SCC setup                      ...        0 min,  0.000 sec (  4.492%)
 Dispersion                     ...        0 min,  0.000 sec (  0.457%)
 classical contributions        ...        0 min,  0.000 sec (  0.170%)
 integral evaluation            ...        0 min,  0.001 sec ( 22.625%)
 iterations                     ...        0 min,  0.002 sec ( 26.082%)
 molecular gradient             ...        0 min,  0.003 sec ( 43.600%)
 printout                       ...        0 min,  0.000 sec (  2.276%)

         :::::::::::::::::::::::::::::::::::::::::::::::::::::
         ::                     SUMMARY                     ::
         :::::::::::::::::::::::::::::::::::::::::::::::::::::
         :: total energy             -23.377299827738 Eh    ::
         :: total w/o Gsasa/hb       -23.372721659823 Eh    ::
         :: gradient norm              0.000699140780 Eh/a0 ::
         :: HOMO-LUMO gap              3.687196350213 eV    ::
         ::.................................................::
         :: SCC energy               -23.719555297337 Eh    ::
         :: -> isotropic ES            0.017162015911 Eh    ::
         :: -> anisotropic ES          0.000251172720 Eh    ::
         :: -> anisotropic XC          0.011291133544 Eh    ::
         :: -> dispersion             -0.011997438363 Eh    ::
         :: -> Gsolv                  -0.008775899418 Eh    ::
         ::    -> Gelec               -0.004197731502 Eh    ::
         ::    -> Gsasa               -0.002376267183 Eh    ::
         ::    -> Ghb                 -0.003282660430 Eh    ::
         ::    -> Gshift               0.001080759698 Eh    ::
         :: repulsion energy           0.342229953524 Eh    ::
         :: add. restraining           0.000000000000 Eh    ::
         :: total charge               0.000000000000 e     ::
         :::::::::::::::::::::::::::::::::::::::::::::::::::::

           ------------------------------------------------- 
          |                Numerical Hessian                |
           ------------------------------------------------- 
step length          :   0.00500
SCC accuracy         :   0.30000
Hessian scale factor :   1.00000
frozen atoms in %    :   0.00000    0
RMS gradient         :   0.00070
estimated CPU  time      0.01 min
estimated wall time      0.01 min

writing file <hessian>.

 projected vibrational frequencies (cm⁻¹)
eigval :       -0.00    -0.00     0.00     0.00     0.00     0.00
eigval :      138.63   231.56   246.98   342.47   389.45   421.49
eigval :      432.36   452.28   510.49   533.59   654.07   659.71
eigval :      774.97   836.49   856.41   900.18   915.51   995.48
eigval :     1022.19  1090.98  1155.75  1175.38  1251.50  1306.79
eigval :     1331.31  1427.01  1439.12  1498.84  1559.45  1600.96
eigval :     3082.77  3088.02  3092.93  3106.93  3474.98  3537.89
           -------------------------------------------------
          |                Property Printout                |
           -------------------------------------------------

    * Orbital Energies and Occupations

         #    Occupation            Energy/Eh            Energy/eV
      -------------------------------------------------------------
         1        2.0000           -1.0603948             -28.8548
       ...           ...                  ...                  ...
         9        2.0000           -0.5291261             -14.3983
        10        2.0000           -0.5138498             -13.9826
        11        2.0000           -0.5008903             -13.6299
        12        2.0000           -0.4884136             -13.2904
        13        2.0000           -0.4818923             -13.1130
        14        2.0000           -0.4811263             -13.0921
        15        2.0000           -0.4484949             -12.2042
        16        2.0000           -0.4431321             -12.0582
        17        2.0000           -0.4394467             -11.9580
        18        2.0000           -0.4289630             -11.6727
        19        2.0000           -0.4190580             -11.4031
        20        2.0000           -0.3969487             -10.8015
        21        2.0000           -0.3596032              -9.7853 (HOMO)
        22                         -0.2241012              -6.0981 (LUMO)
        23                         -0.2100086              -5.7146
        24                         -0.1412247              -3.8429
        25                         -0.0920612              -2.5051
        26                          0.0130595               0.3554
        27                          0.0157010               0.4272
        28                          0.0182522               0.4967
        29                          0.0315219               0.8578
        30                          0.0469292               1.2770
        31                          0.1282388               3.4896
        32                          0.1410962               3.8394
       ...                                ...                  ...
        43                          0.6594435              17.9444
      -------------------------------------------------------------
                  HL-Gap            0.1355020 Eh            3.6872 eV
             Fermi-level           -0.2918522 Eh           -7.9417 eV

     #   Z          covCN         q      C6AA      α(0)
     1   6 C        2.921    -0.054    29.334     8.882
     2   6 C        2.917    -0.039    28.970     8.826
     3   6 C        2.928    -0.069    29.725     8.941
     4   6 C        2.921     0.078    26.254     8.403
     5   6 C        2.894     0.062    26.619     8.459
     6   6 C        2.951    -0.045    29.120     8.851
     7   1 H        0.926     0.045     2.378     2.412
     8   7 N        2.641    -0.293    27.564     7.797
     9   1 H        0.860     0.215     1.032     1.591
    10   1 H        0.860     0.202     1.096     1.640
    11   1 H        0.926     0.053     2.278     2.360
    12   1 H        0.926     0.048     2.340     2.392
    13   1 H        0.926     0.043     2.404     2.425
    14  17 Cl       0.955    -0.247   106.991    15.825

 Mol. C6AA /au·bohr⁶  :       3100.580111
 Mol. C8AA /au·bohr⁸  :      84979.664461
 Mol. α(0) /au        :         88.803155


Wiberg/Mayer (AO) data.
largest (>0.10) Wiberg bond orders for each atom

 ---------------------------------------------------------------------------
     #   Z sym  total        # sym  WBO       # sym  WBO       # sym  WBO
 ---------------------------------------------------------------------------
     1   6 C    3.988 --     6 C    1.425     2 C    1.418    13 H    0.970
     2   6 C    3.992 --     3 C    1.472     1 C    1.418    12 H    0.969
     3   6 C    3.984 --     2 C    1.472     4 C    1.321    11 H    0.966
                             6 C    0.102
     4   6 C    3.979 --     3 C    1.321     5 C    1.307     8 N    1.211
     5   6 C    3.879 --     6 C    1.435     4 C    1.307    14 Cl   0.919
     6   6 C    3.989 --     5 C    1.435     1 C    1.425     7 H    0.968
                             3 C    0.102
     7   1 H    0.997 --     6 C    0.968
     8   7 N    3.294 --     4 C    1.211    10 H    0.935     9 H    0.934
     9   1 H    0.953 --     8 N    0.934
    10   1 H    0.959 --     8 N    0.935
    11   1 H    0.997 --     3 C    0.966
    12   1 H    0.997 --     2 C    0.969
    13   1 H    0.998 --     1 C    0.970
    14  17 Cl   1.047 --     5 C    0.919
 ---------------------------------------------------------------------------

Topologies differ in total number of bonds
Writing topology from bond orders to xtbtopo.mol

molecular dipole:
                 x           y           z       tot (Debye)
 q only:       -0.704       1.111       0.168
   full:       -0.432       0.935       0.288       2.719
molecular quadrupole (traceless):
                xx          xy          yy          xz          yz          zz
 q only:       -3.871       3.527       6.641       0.354       1.319      -2.770
  q+dip:       -2.481       2.205       8.998       0.617       2.505      -6.518
   full:       -2.761       2.191       7.415       0.612       2.498      -4.655

           -------------------------------------------------
          |                Geometry Summary                 |
           -------------------------------------------------

      molecular mass/u    :      127.5717007
   center of mass at/Å    :        0.0623808      -0.0224545       0.0177729
  moments of inertia/u·Å² :        0.1706117E+03   0.3278560E+03   0.4982430E+03
rotational constants/cm⁻¹ :        0.9880701E-01   0.5141779E-01   0.3383416E-01

 * 14 selected distances

     #   Z          #   Z                                           value/Å
     1   6 C        2   6 C                                       1.3862072
     2   6 C        3   6 C                                       1.3789337
     3   6 C        4   6 C                                       1.4007618
     4   6 C        5   6 C                                       1.4006391
     1   6 C        6   6 C                                       1.3848024
     5   6 C        6   6 C                                       1.3799343
     6   6 C        7   1 H                                       1.0792343
     4   6 C        8   7 N                                       1.3639185
     8   7 N        9   1 H                                       1.0049121 (min)
     8   7 N       10   1 H                                       1.0060499
     3   6 C       11   1 H                                       1.0792703
     2   6 C       12   1 H                                       1.0792142
     1   6 C       13   1 H                                       1.0779203
     5   6 C       14  17 Cl                                      1.7529628 (max)

 * 5 distinct bonds (by element types)

   Z      Z             #   av. dist./Å        max./Å        min./Å
   1 H    6 C           4     1.0789098     1.0792703     1.0779203
   6 C    6 C           6     1.3885464     1.4007618     1.3789337
   1 H    7 N           2     1.0054810     1.0060499     1.0049121
   6 C    7 N           1     1.3639185     1.3639185     1.3639185
   6 C   17 Cl          1     1.7529628     1.7529628     1.7529628

           -------------------------------------------------
          |               Frequency Printout                |
           -------------------------------------------------
 projected vibrational frequencies (cm⁻¹)
eigval :       -0.00    -0.00     0.00     0.00     0.00     0.00
eigval :      138.63   231.56   246.98   342.47   389.45   421.49
eigval :      432.36   452.28   510.49   533.59   654.07   659.71
eigval :      774.97   836.49   856.41   900.18   915.51   995.48
eigval :     1022.19  1090.98  1155.75  1175.38  1251.50  1306.79
eigval :     1331.31  1427.01  1439.12  1498.84  1559.45  1600.96
eigval :     3082.77  3088.02  3092.93  3106.93  3474.98  3537.89
 reduced masses (amu)
   1: 30.26   2: 19.51   3: 15.81   4: 11.85   5: 12.79   6: 17.30   7: 14.52   8: 20.88
   9: 11.18  10: 21.65  11:  4.05  12:  7.79  13:  6.80  14:  9.01  15: 10.25  16: 12.24
  17: 11.61  18: 13.34  19:  3.25  20: 11.11  21:  3.51  22:  3.60  23:  3.22  24:  5.84
  25:  9.89  26:  6.06  27:  3.65  28:  1.36  29:  3.99  30:  7.66  31: 11.56  32:  7.58
  33:  5.54  34: 10.08  35: 11.43  36: 11.61  37:  1.76  38:  1.80  39:  1.86  40:  1.91
  41:  1.45  42:  2.17
 IR intensities (km·mol⁻¹)
   1:  0.46   2:  0.56   3:  0.07   4:  0.14   5:  1.30   6:  0.25   7:  0.44   8:  5.67
   9:  1.72  10:  1.77  11: 75.49  12:  6.47  13:269.41  14:102.80  15:  1.05  16:  1.81
  17:  3.60  18: 17.49  19: 39.11  20:  7.08  21:  1.24  22:  0.59  23:  0.05  24:  4.03
  25: 85.37  26:  0.15  27: 12.31  28:  2.06  29:  0.11  30: 95.04  31: 31.93  32: 10.79
  33: 19.08  34:345.39  35:  1.28  36:230.72  37: 18.17  38: 22.36  39:128.18  40: 80.87
  41: 38.59  42: 33.83
 Raman intensities (amu)
   1:  0.00   2:  0.00   3:  0.00   4:  0.00   5:  0.00   6:  0.00   7:  0.00   8:  0.00
   9:  0.00  10:  0.00  11:  0.00  12:  0.00  13:  0.00  14:  0.00  15:  0.00  16:  0.00
  17:  0.00  18:  0.00  19:  0.00  20:  0.00  21:  0.00  22:  0.00  23:  0.00  24:  0.00
  25:  0.00  26:  0.00  27:  0.00  28:  0.00  29:  0.00  30:  0.00  31:  0.00  32:  0.00
  33:  0.00  34:  0.00  35:  0.00  36:  0.00  37:  0.00  38:  0.00  39:  0.00  40:  0.00
  41:  0.00  42:  0.00
 output can be read by thermo (or use thermo option).
 writing <g98.out> molden fake output.
 recommended (thermochemical) frequency scaling factor: 1.0
           -------------------------------------------------
          |             Thermodynamic Functions             |
           -------------------------------------------------

Molecule has no symmetry elements
It seems to be the C1 point group
c1  symmetry found (for desy threshold:  0.10E+00) used in thermo

          ...................................................
          :                      SETUP                      :
          :.................................................:
          :  # frequencies                          36      :
          :  # imaginary freq.                       0      :
          :  linear?                             false      :
          :  only rotor calc.                    false      :
          :  symmetry                               c1      :
          :  rotational number                       1      :
          :  scaling factor                  1.0000000      :
          :  rotor cutoff                   50.0000000 cm⁻¹ :
          :  imag. cutoff                  -20.0000000 cm⁻¹ :
          :.................................................:

    mode    ω/cm⁻¹     T·S(HO)/kcal·mol⁻¹    T·S(FR)/kcal·mol⁻¹   T·S(vib)
   ------------------------------------------------------------------------
       1    138.63    -0.84161 ( 98.34%)    -0.75435 (  1.66%)    -0.84015
       2    231.56    -0.55660 ( 99.78%)    -0.60241 (  0.22%)    -0.55670
       3    246.98    -0.52237 ( 99.83%)    -0.58331 (  0.17%)    -0.52247
   ------------------------------------------------------------------------

   temp. (K)  partition function   enthalpy   heat capacity  entropy
                                   cal/mol     cal/K/mol   cal/K/mol   J/K/mol
 298.15  VIB   13.8                 2750.941     22.106     14.433
         ROT  0.403E+06              888.752      2.981     28.631
         INT  0.555E+07             3639.693     25.087     43.064
         TR   0.139E+28             1481.254      4.968     40.426
         TOT                        5120.9469    30.0547    83.4894   349.3198

       T/K    H(0)-H(T)+PV         H(T)/Eh          T*S/Eh         G(T)/Eh
   ------------------------------------------------------------------------
    298.15    0.816075E-02    0.111897E+00    0.396685E-01    0.722284E-01
   ------------------------------------------------------------------------

         :::::::::::::::::::::::::::::::::::::::::::::::::::::
         ::                  THERMODYNAMIC                  ::
         :::::::::::::::::::::::::::::::::::::::::::::::::::::
         :: total free energy         -23.305071457572 Eh   ::
         ::.................................................::
         :: total energy              -23.377299827582 Eh   ::
         :: zero point energy           0.103736145786 Eh   ::
         :: G(RRHO) w/o ZPVE           -0.031507775776 Eh   ::
         :: G(RRHO) contrib.            0.072228370010 Eh   ::
         :::::::::::::::::::::::::::::::::::::::::::::::::::::

optimized geometry written to: xtbopt.xyz


           -------------------------------------------------
          | TOTAL ENERGY              -23.377299827582 Eh   |
          | TOTAL ENTHALPY            -23.265402933436 Eh   |
          | TOTAL FREE ENERGY         -23.305071457572 Eh   |
          | GRADIENT NORM               0.000700406721 Eh/α |
          | HOMO-LUMO GAP               3.687197682944 eV   |
           -------------------------------------------------

------------------------------------------------------------------------
 * finished run on 2021/11/15 at 09:36:19.490     
------------------------------------------------------------------------
 total:
 * wall-time:     0 d,  0 h,  0 min,  0.645 sec
 *  cpu-time:     0 d,  0 h,  0 min,  0.609 sec
 * ratio c/w:     0.945 speedup
 SCF:
 * wall-time:     0 d,  0 h,  0 min,  0.010 sec
 *  cpu-time:     0 d,  0 h,  0 min,  0.000 sec
 * ratio c/w:     0.000 speedup
 ANC optimizer:
 * wall-time:     0 d,  0 h,  0 min,  0.063 sec
 *  cpu-time:     0 d,  0 h,  0 min,  0.062 sec
 * ratio c/w:     0.990 speedup
 analytical hessian:
 * wall-time:     0 d,  0 h,  0 min,  0.537 sec
 *  cpu-time:     0 d,  0 h,  0 min,  0.531 sec
 * ratio c/w:     0.990 speedup

