 Entering Gaussian System
 *********************************************
 Gaussian 98:
 frequency output generated by the xtb code
 *********************************************
                         Standard orientation:
 --------------------------------------------------------------------
  Center     Atomic     Atomic              Coordinates (Angstroms)
  Number     Number      Type              X           Y           Z
 --------------------------------------------------------------------
    1          6             0       -1.823778   -1.288313   -0.005388
    2          6             0       -2.350537   -0.006098   -0.000923
    3          6             0       -1.518872    1.093695    0.014744
    4          6             0       -0.125091    0.954302    0.023557
    5          6             0        0.377053   -0.353227    0.020493
    6          6             0       -0.449477   -1.458151    0.006003
    7          1             0       -0.017136   -2.447003    0.005766
    8          7             0        0.695162    2.042855   -0.026551
    9          1             0        0.302013    2.930650    0.232488
   10          1             0        1.665039    1.892431    0.194464
   11          1             0       -1.934873    2.089567    0.017599
   12          1             0       -3.420370    0.135763   -0.006967
   13          1             0       -2.470708   -2.150444   -0.016437
   14         17             0        2.112532   -0.599211    0.042491
 --------------------------------------------------------------------
     1 basis functions        1 primitive gaussians
     1 alpha electrons        1 beta electrons
 
 Harmonic frequencies (cm**-1), IR intensities (km*mol⁻¹),
 Raman scattering activities (A**4/amu), Raman depolarization ratios,
 reduced masses (AMU), force constants (mDyne/A) and normal coordinates:
                      1                      2                      3
                        a                      a                      a 
 Frequencies --   138.6251               231.5553               246.9805
 Red. masses --    14.5151                20.8792                11.1764
 Frc consts  --     0.0000                 0.0000                 0.0000
 IR Inten    --     0.4429                 5.6672                 1.7198
 Raman Activ --     0.0000                 0.0000                 0.0000
 Depolar     --     0.0000                 0.0000                 0.0000
 Atom AN      X      Y      Z        X      Y      Z        X      Y      Z
   1   6    -0.01  -0.00   0.20     0.13  -0.01   0.01    -0.00  -0.01   0.36
   2   6     0.00   0.00  -0.34     0.02  -0.06  -0.01    -0.00  -0.01   0.24
   3   6     0.00   0.00  -0.35    -0.06  -0.01  -0.01     0.00   0.00  -0.36
   4   6    -0.00  -0.00   0.08    -0.02   0.18   0.00     0.00   0.00  -0.31
   5   6    -0.00  -0.01   0.19     0.10   0.22   0.00     0.00   0.00  -0.47
   6   6    -0.01  -0.01   0.40     0.13   0.18   0.01     0.00  -0.00  -0.26
   7   1    -0.00  -0.00   0.18     0.07   0.06   0.01     0.00   0.00  -0.09
   8   7     0.02  -0.01   0.43    -0.35   0.46   0.00     0.02   0.02   0.33
   9   1    -0.02  -0.00   0.07    -0.17   0.08   0.02    -0.02  -0.02   0.15
  10   1    -0.01  -0.00   0.19    -0.08   0.21  -0.00    -0.01  -0.02   0.14
  11   1     0.00   0.00  -0.19    -0.04  -0.01  -0.01     0.00   0.00  -0.12
  12   1     0.00   0.00  -0.20     0.00  -0.04  -0.01    -0.00  -0.00   0.18
  13   1    -0.00  -0.00   0.11     0.07  -0.02   0.01    -0.00  -0.00   0.25
  14  17     0.00   0.02  -0.41     0.07  -0.63  -0.01    -0.01   0.00   0.18
                      4                      5                      6
                        a                      a                      a 
 Frequencies --   342.4747               389.4483               421.4936
 Red. masses --    21.6465                 4.0514                 7.7879
 Frc consts  --     0.0000                 0.0000                 0.0000
 IR Inten    --     1.7741                75.4858                 6.4720
 Raman Activ --     0.0000                 0.0000                 0.0000
 Depolar     --     0.0000                 0.0000                 0.0000
 Atom AN      X      Y      Z        X      Y      Z        X      Y      Z
   1   6    -0.23   0.20   0.00     0.01  -0.01   0.01    -0.01  -0.01  -0.09
   2   6    -0.24   0.20   0.00     0.04  -0.00   0.20     0.09   0.03  -0.15
   3   6    -0.03  -0.00  -0.01     0.03   0.01  -0.18     0.13  -0.02   0.32
   4   6    -0.04  -0.23  -0.01     0.03   0.01   0.12     0.11  -0.05  -0.23
   5   6     0.10  -0.19  -0.00    -0.00  -0.01   0.29     0.01  -0.08  -0.45
   6   6    -0.21  -0.00  -0.01     0.02  -0.01  -0.24    -0.02  -0.08   0.30
   7   1    -0.14  -0.04  -0.01     0.01   0.00  -0.20    -0.01  -0.02   0.25
   8   7    -0.34  -0.06   0.02     0.03  -0.07   0.09    -0.02   0.06   0.08
   9   1    -0.18  -0.04  -0.05    -0.14   0.13  -0.72    -0.19   0.03  -0.33
  10   1    -0.08   0.09  -0.01    -0.04   0.15   0.30    -0.06   0.16   0.34
  11   1     0.07   0.03  -0.00     0.00   0.00  -0.15     0.04  -0.00   0.27
  12   1    -0.06   0.09   0.00     0.01   0.00   0.10     0.03   0.03  -0.03
  13   1    -0.08   0.06   0.00     0.00   0.00  -0.03    -0.02   0.01   0.00
  14  17     0.67   0.02   0.01    -0.07   0.00  -0.05    -0.13   0.05   0.04
                      7                      8                      9
                        a                      a                      a 
 Frequencies --   432.3597               452.2790               510.4889
 Red. masses --     6.7978                 9.0103                10.2536
 Frc consts  --     0.0000                 0.0000                 0.0000
 IR Inten    --   269.4147               102.7971                 1.0520
 Raman Activ --     0.0000                 0.0000                 0.0000
 Depolar     --     0.0000                 0.0000                 0.0000
 Atom AN      X      Y      Z        X      Y      Z        X      Y      Z
   1   6     0.05   0.01  -0.00     0.03   0.03  -0.05    -0.02  -0.01  -0.46
   2   6    -0.10  -0.05  -0.08    -0.23  -0.09   0.02     0.00  -0.01   0.41
   3   6    -0.22   0.05   0.07    -0.31   0.02   0.06     0.02  -0.01  -0.19
   4   6    -0.16   0.12  -0.07    -0.25   0.11  -0.06     0.02   0.01  -0.48
   5   6    -0.01   0.15  -0.19     0.00   0.20  -0.03    -0.01  -0.01   0.26
   6   6     0.07   0.14   0.09     0.06   0.20   0.06    -0.02  -0.01   0.27
   7   1     0.03   0.05   0.08     0.03   0.06   0.04    -0.01  -0.00   0.17
   8   7     0.04  -0.25   0.34     0.26  -0.17  -0.18    -0.00   0.03   0.19
   9   1     0.18   0.14  -0.43     0.12  -0.04   0.05    -0.00  -0.01   0.09
  10   1     0.13  -0.11  -0.53    -0.09  -0.23   0.58     0.02  -0.01  -0.05
  11   1    -0.09   0.00   0.07    -0.11  -0.00   0.05     0.00  -0.00   0.01
  12   1    -0.04  -0.06  -0.03    -0.07  -0.08   0.03     0.00   0.00   0.29
  13   1     0.04  -0.02   0.02     0.06  -0.03  -0.02    -0.01  -0.00  -0.22
  14  17     0.15  -0.09   0.03     0.25  -0.11  -0.01     0.00   0.00  -0.05
                     10                     11                     12
                        a                      a                      a 
 Frequencies --   533.5944               654.0690               659.7125
 Red. masses --    12.2408                11.6068                13.3376
 Frc consts  --     0.0000                 0.0000                 0.0000
 IR Inten    --     1.8123                 3.6044                17.4897
 Raman Activ --     0.0000                 0.0000                 0.0000
 Depolar     --     0.0000                 0.0000                 0.0000
 Atom AN      X      Y      Z        X      Y      Z        X      Y      Z
   1   6     0.42   0.31  -0.02     0.01   0.05  -0.28    -0.07  -0.22  -0.06
   2   6     0.14   0.22   0.02    -0.08  -0.00   0.29     0.34   0.00   0.07
   3   6    -0.13   0.35  -0.01     0.03  -0.09  -0.30    -0.14   0.38  -0.06
   4   6    -0.23  -0.21  -0.02     0.03  -0.05   0.59    -0.14   0.22   0.14
   5   6     0.08  -0.09   0.01     0.10   0.02  -0.46    -0.42  -0.06  -0.11
   6   6     0.33  -0.18   0.02     0.02   0.09   0.29    -0.09  -0.43   0.06
   7   1     0.05  -0.06   0.01    -0.01   0.02   0.06     0.03  -0.10   0.01
   8   7    -0.28  -0.29  -0.02    -0.01  -0.04  -0.09     0.04   0.16  -0.03
   9   1    -0.09  -0.10   0.05     0.01  -0.00  -0.02     0.04   0.06  -0.02
  10   1    -0.08  -0.07   0.04     0.00   0.02  -0.02    -0.00   0.01   0.03
  11   1     0.02   0.12  -0.00     0.03  -0.01  -0.17    -0.13   0.07  -0.04
  12   1     0.03  -0.06   0.01    -0.02   0.01   0.05     0.09  -0.04   0.01
  13   1     0.08   0.12  -0.01     0.03  -0.01  -0.10    -0.14   0.03  -0.02
  14  17    -0.18  -0.05  -0.01    -0.06   0.01   0.02     0.29  -0.04   0.01
                     13                     14                     15
                        a                      a                      a 
 Frequencies --   774.9692               836.4947               856.4117
 Red. masses --     3.2485                11.1097                 3.5070
 Frc consts  --     0.0000                 0.0000                 0.0000
 IR Inten    --    39.1073                 7.0773                 1.2417
 Raman Activ --     0.0000                 0.0000                 0.0000
 Depolar     --     0.0000                 0.0000                 0.0000
 Atom AN      X      Y      Z        X      Y      Z        X      Y      Z
   1   6     0.00   0.00   0.20    -0.19  -0.26  -0.01    -0.01  -0.00   0.25
   2   6    -0.01  -0.00   0.17     0.50  -0.03   0.01     0.01   0.00  -0.10
   3   6    -0.00  -0.00   0.20     0.17   0.11   0.01     0.01   0.00  -0.36
   4   6     0.00   0.00  -0.21    -0.08  -0.07  -0.01    -0.00  -0.00   0.06
   5   6     0.00  -0.00  -0.12     0.01   0.21   0.00     0.00   0.00  -0.00
   6   6     0.00  -0.00   0.18    -0.16   0.44  -0.00    -0.00   0.01   0.15
   7   1     0.00   0.00  -0.36     0.07   0.17   0.01     0.00   0.00  -0.35
   8   7     0.01   0.01   0.05    -0.28  -0.36  -0.02    -0.01  -0.01  -0.02
   9   1    -0.01  -0.01   0.01    -0.08  -0.11   0.03     0.00  -0.00   0.00
  10   1    -0.00  -0.01   0.02    -0.09  -0.13   0.04    -0.00  -0.00  -0.01
  11   1     0.01   0.00  -0.40     0.02   0.01  -0.02    -0.01  -0.01   0.69
  12   1     0.00   0.00  -0.43     0.15   0.10  -0.00     0.00   0.00   0.13
  13   1     0.01   0.00  -0.57    -0.06  -0.06   0.00     0.00   0.00  -0.40
  14  17    -0.00  -0.00   0.02     0.02  -0.00   0.00     0.00   0.00   0.00
                     16                     17                     18
                        a                      a                      a 
 Frequencies --   900.1772               915.5055               995.4757
 Red. masses --     3.6039                 3.2188                 5.8412
 Frc consts  --     0.0000                 0.0000                 0.0000
 IR Inten    --     0.5939                 0.0529                 4.0262
 Raman Activ --     0.0000                 0.0000                 0.0000
 Depolar     --     0.0000                 0.0000                 0.0000
 Atom AN      X      Y      Z        X      Y      Z        X      Y      Z
   1   6     0.00   0.00  -0.23    -0.00  -0.00   0.17    -0.06  -0.18  -0.00
   2   6     0.00   0.00  -0.14     0.00   0.00  -0.37    -0.06  -0.05  -0.00
   3   6    -0.00  -0.00   0.11    -0.00  -0.00   0.16    -0.28   0.34  -0.01
   4   6    -0.00   0.00  -0.07    -0.00   0.00   0.06     0.09  -0.11   0.01
   5   6     0.00   0.00  -0.01     0.00   0.00  -0.06     0.16  -0.04   0.01
   6   6    -0.00  -0.00   0.38     0.00  -0.00   0.02    -0.05   0.13   0.00
   7   1     0.01   0.00  -0.72    -0.00  -0.00   0.07     0.01   0.04  -0.00
   8   7    -0.00   0.00   0.01    -0.00   0.00   0.00     0.31  -0.12  -0.00
   9   1    -0.00  -0.00   0.01     0.01   0.00   0.00    -0.39  -0.26   0.10
  10   1     0.00  -0.01  -0.01     0.00  -0.00  -0.01     0.18   0.50  -0.10
  11   1     0.00   0.00  -0.10     0.01   0.00  -0.35    -0.14   0.07  -0.00
  12   1    -0.00  -0.00   0.19    -0.01  -0.01   0.74    -0.04  -0.15   0.00
  13   1    -0.00  -0.00   0.45     0.00   0.00  -0.36     0.05  -0.10  -0.00
  14  17    -0.00   0.00   0.01     0.00   0.00  -0.00    -0.03   0.01   0.00
                     19                     20                     21
                        a                      a                      a 
 Frequencies --  1022.1852              1090.9834              1155.7532
 Red. masses --     9.8856                 6.0556                 3.6522
 Frc consts  --     0.0000                 0.0000                 0.0000
 IR Inten    --    85.3699                 0.1493                12.3076
 Raman Activ --     0.0000                 0.0000                 0.0000
 Depolar     --     0.0000                 0.0000                 0.0000
 Atom AN      X      Y      Z        X      Y      Z        X      Y      Z
   1   6    -0.18  -0.17  -0.00     0.17   0.38   0.00    -0.17   0.02  -0.00
   2   6     0.11  -0.06   0.00     0.34  -0.17   0.00     0.01   0.07  -0.00
   3   6    -0.16   0.26   0.00    -0.06  -0.22   0.00    -0.08  -0.17  -0.00
   4   6    -0.08  -0.06  -0.01    -0.03   0.04   0.00    -0.08   0.08   0.00
   5   6     0.66  -0.27   0.00    -0.05  -0.06  -0.00     0.25   0.09   0.00
   6   6    -0.06   0.03  -0.00    -0.22   0.15  -0.00     0.23  -0.16   0.00
   7   1    -0.21  -0.09   0.00    -0.45  -0.12  -0.00     0.28   0.04   0.00
   8   7    -0.05   0.24   0.01     0.06  -0.01  -0.00     0.05  -0.07  -0.00
   9   1     0.28   0.21  -0.06    -0.06  -0.04   0.01    -0.09  -0.07   0.02
  10   1    -0.05  -0.19   0.05     0.03   0.05  -0.02     0.03   0.07  -0.02
  11   1    -0.09   0.05   0.00    -0.40  -0.23  -0.01    -0.38  -0.20  -0.01
  12   1     0.02  -0.06  -0.00     0.08  -0.25   0.00     0.05   0.41   0.00
  13   1    -0.07  -0.03  -0.00    -0.06   0.19   0.00    -0.46   0.31  -0.00
  14  17    -0.12   0.02  -0.00     0.01   0.00   0.00    -0.03  -0.01  -0.00
                     22                     23                     24
                        a                      a                      a 
 Frequencies --  1175.3771              1251.4962              1306.7893
 Red. masses --     1.3576                 3.9918                 7.6556
 Frc consts  --     0.0000                 0.0000                 0.0000
 IR Inten    --     2.0632                 0.1102                95.0368
 Raman Activ --     0.0000                 0.0000                 0.0000
 Depolar     --     0.0000                 0.0000                 0.0000
 Atom AN      X      Y      Z        X      Y      Z        X      Y      Z
   1   6    -0.05   0.05   0.00     0.02  -0.15  -0.00     0.13   0.10   0.00
   2   6     0.01  -0.09   0.00    -0.02  -0.12  -0.00     0.21  -0.14   0.00
   3   6    -0.02  -0.02  -0.00    -0.01  -0.07  -0.00    -0.24  -0.15  -0.00
   4   6     0.06  -0.08  -0.00    -0.18   0.20   0.00    -0.37  -0.33  -0.01
   5   6     0.02   0.06   0.00     0.11   0.32   0.00    -0.12  -0.20  -0.00
   6   6    -0.04   0.04  -0.00     0.15  -0.10   0.00    -0.09   0.19   0.00
   7   1     0.26   0.13   0.00    -0.55  -0.29  -0.01     0.13   0.13   0.00
   8   7     0.00   0.03   0.00     0.05  -0.11  -0.00     0.19   0.20   0.01
   9   1     0.04   0.03  -0.01    -0.12  -0.09   0.02     0.19   0.12   0.01
  10   1    -0.00  -0.00   0.00     0.03   0.10  -0.02     0.09   0.28   0.00
  11   1     0.31   0.12   0.01     0.45   0.17   0.01     0.29   0.10   0.01
  12   1    -0.08  -0.63  -0.01     0.02   0.16   0.00     0.11   0.35   0.00
  13   1    -0.48   0.37  -0.00    -0.21   0.12  -0.00    -0.02   0.08   0.00
  14  17    -0.00   0.00   0.00    -0.01  -0.01  -0.00     0.02   0.00   0.00
                     25                     26                     27
                        a                      a                      a 
 Frequencies --  1331.3105              1427.0108              1439.1161
 Red. masses --    11.5627                 7.5809                 5.5384
 Frc consts  --     0.0000                 0.0000                 0.0000
 IR Inten    --    31.9289                10.7869                19.0769
 Raman Activ --     0.0000                 0.0000                 0.0000
 Depolar     --     0.0000                 0.0000                 0.0000
 Atom AN      X      Y      Z        X      Y      Z        X      Y      Z
   1   6     0.36  -0.26   0.00     0.23  -0.09   0.00     0.02  -0.15  -0.00
   2   6     0.03   0.33   0.00    -0.18  -0.32  -0.00    -0.18  -0.04  -0.00
   3   6    -0.38  -0.12  -0.00    -0.07   0.24  -0.00     0.20   0.19   0.01
   4   6     0.37  -0.29  -0.00     0.30  -0.03   0.02     0.13  -0.21  -0.03
   5   6     0.03   0.36   0.00    -0.22  -0.28  -0.00    -0.22   0.03  -0.00
   6   6    -0.34  -0.11  -0.00     0.11   0.30   0.00     0.27   0.17   0.01
   7   1    -0.06  -0.02  -0.00    -0.10   0.03  -0.00    -0.21  -0.07  -0.00
   8   7    -0.04   0.04  -0.00     0.00   0.13   0.01    -0.18  -0.14  -0.02
   9   1     0.10   0.06  -0.02    -0.25  -0.07  -0.06     0.48   0.18   0.07
  10   1    -0.02  -0.07   0.03    -0.05  -0.39  -0.05     0.01   0.42   0.10
  11   1    -0.04  -0.01   0.00    -0.02   0.07   0.00    -0.22  -0.06  -0.01
  12   1     0.01   0.09  -0.00    -0.01   0.27   0.00    -0.06  -0.01  -0.00
  13   1    -0.07   0.05  -0.00    -0.22   0.20   0.00    -0.16   0.08  -0.00
  14  17    -0.00   0.01  -0.00     0.00   0.01   0.00     0.01  -0.00  -0.00
                     28                     29                     30
                        a                      a                      a 
 Frequencies --  1498.8422              1559.4465              1600.9647
 Red. masses --    10.0753                11.4332                11.6142
 Frc consts  --     0.0000                 0.0000                 0.0000
 IR Inten    --   345.3875                 1.2754               230.7176
 Raman Activ --     0.0000                 0.0000                 0.0000
 Depolar     --     0.0000                 0.0000                 0.0000
 Atom AN      X      Y      Z        X      Y      Z        X      Y      Z
   1   6    -0.17  -0.16  -0.00     0.46  -0.35   0.00     0.09   0.17   0.00
   2   6     0.04   0.32   0.00    -0.20   0.26  -0.00    -0.15  -0.44  -0.00
   3   6     0.13  -0.07   0.00     0.36  -0.01   0.00     0.36   0.30   0.00
   4   6    -0.28  -0.48   0.01    -0.40   0.22  -0.00    -0.16  -0.33   0.00
   5   6    -0.16   0.13  -0.00     0.09  -0.23  -0.00     0.12   0.42   0.00
   6   6     0.33   0.12   0.00    -0.30   0.10  -0.00    -0.31  -0.24  -0.00
   7   1    -0.16  -0.08  -0.00     0.01   0.07   0.00     0.08   0.01   0.00
   8   7     0.22   0.31   0.03     0.05  -0.01   0.00     0.06   0.10   0.02
   9   1    -0.21  -0.02  -0.08    -0.05  -0.03   0.01    -0.03   0.01  -0.03
  10   1     0.02  -0.24  -0.08     0.02   0.05  -0.02     0.00  -0.06  -0.03
  11   1    -0.12  -0.09  -0.00    -0.08  -0.07  -0.00    -0.12  -0.01  -0.00
  12   1    -0.03  -0.17  -0.00    -0.07  -0.05  -0.00    -0.01   0.10   0.00
  13   1    -0.04  -0.05   0.00    -0.12   0.09  -0.00     0.03   0.04   0.00
  14  17     0.01  -0.01   0.00     0.01   0.00   0.00     0.01  -0.00   0.00
                     31                     32                     33
                        a                      a                      a 
 Frequencies --  3082.7667              3088.0226              3092.9274
 Red. masses --     1.7644                 1.7958                 1.8647
 Frc consts  --     0.0000                 0.0000                 0.0000
 IR Inten    --    18.1735                22.3581               128.1839
 Raman Activ --     0.0000                 0.0000                 0.0000
 Depolar     --     0.0000                 0.0000                 0.0000
 Atom AN      X      Y      Z        X      Y      Z        X      Y      Z
   1   6    -0.03  -0.04  -0.00     0.07   0.09   0.00     0.05   0.07   0.00
   2   6     0.19  -0.02   0.00    -0.00   0.00   0.00    -0.16   0.02  -0.00
   3   6    -0.07   0.16   0.00    -0.02   0.05   0.00    -0.07   0.18   0.00
   4   6     0.00   0.01   0.00    -0.00   0.00  -0.00     0.00   0.01   0.00
   5   6    -0.00  -0.00   0.00     0.01  -0.00   0.00    -0.00  -0.00  -0.00
   6   6    -0.01   0.01  -0.00     0.09  -0.21  -0.00    -0.04   0.09   0.00
   7   1     0.02  -0.03  -0.00    -0.33   0.77   0.00     0.13  -0.30  -0.00
   8   7     0.00  -0.00  -0.00     0.00  -0.00   0.00     0.00  -0.00  -0.00
   9   1    -0.00   0.00   0.00    -0.00  -0.00  -0.00    -0.00  -0.00  -0.00
  10   1    -0.00   0.00   0.00    -0.00   0.00  -0.00    -0.00  -0.00   0.00
  11   1     0.25  -0.59  -0.00     0.08  -0.18  -0.00     0.25  -0.60  -0.00
  12   1    -0.69   0.09  -0.00     0.02  -0.00   0.00     0.54  -0.07   0.00
  13   1     0.11   0.15   0.00    -0.26  -0.35  -0.00    -0.19  -0.25  -0.00
  14  17    -0.00   0.00  -0.00    -0.00   0.00   0.00     0.00   0.00  -0.00
                     34                     35                     36
                        a                      a                      a 
 Frequencies --  3106.9259              3474.9804              3537.8914
 Red. masses --     1.9119                 1.4543                 2.1676
 Frc consts  --     0.0000                 0.0000                 0.0000
 IR Inten    --    80.8724                38.5919                33.8338
 Raman Activ --     0.0000                 0.0000                 0.0000
 Depolar     --     0.0000                 0.0000                 0.0000
 Atom AN      X      Y      Z        X      Y      Z        X      Y      Z
   1   6     0.14   0.18   0.00    -0.00  -0.00  -0.00    -0.00   0.00   0.00
   2   6     0.12  -0.02   0.00     0.00   0.00  -0.00     0.00  -0.00  -0.00
   3   6     0.02  -0.06  -0.00    -0.00  -0.00   0.00     0.00   0.00   0.00
   4   6    -0.00  -0.00   0.00     0.01   0.01   0.00     0.01  -0.00  -0.00
   5   6    -0.01  -0.00  -0.00    -0.00  -0.00  -0.00     0.00   0.00  -0.00
   6   6    -0.04   0.10   0.00     0.00   0.00  -0.00     0.00   0.00   0.00
   7   1     0.14  -0.32  -0.00     0.00  -0.00   0.00    -0.00  -0.00  -0.00
   8   7    -0.00   0.00  -0.00     0.13   0.11   0.07     0.22  -0.20  -0.02
   9   1     0.00   0.00   0.00     0.25  -0.53  -0.14    -0.29   0.67   0.19
  10   1     0.00  -0.00   0.00    -0.75   0.12  -0.15    -0.56   0.07  -0.13
  11   1    -0.08   0.20   0.00    -0.00   0.00   0.00    -0.00   0.00  -0.00
  12   1    -0.39   0.05  -0.00    -0.00   0.00   0.00     0.00   0.00   0.00
  13   1    -0.47  -0.62  -0.01    -0.00  -0.00   0.00     0.00   0.00  -0.00
  14  17     0.00   0.00   0.00    -0.00   0.00   0.00    -0.00   0.00   0.00
