      -----------------------------------------------------------      
     |                   =====================                   |     
     |                           x T B                           |     
     |                   =====================                   |     
     |                         S. Grimme                         |     
     |          Mulliken Center for Theoretical Chemistry        |     
     |                    University of Bonn                     |     
      -----------------------------------------------------------      

   * xtb version 6.4.1 (afa7bdf) compiled by 'ehlert@majestix' on 2021-06-10

   xtb is free software: you can redistribute it and/or modify it under
   the terms of the GNU Lesser General Public License as published by
   the Free Software Foundation, either version 3 of the License, or
   (at your option) any later version.
   
   xtb is distributed in the hope that it will be useful,
   but WITHOUT ANY WARRANTY; without even the implied warranty of
   MERCHANTABILITY or FITNESS FOR A PARTICULAR PURPOSE.  See the
   GNU Lesser General Public License for more details.
   
   Cite this work as:
   * C. Bannwarth, E. Caldeweyher, S. Ehlert, A. Hansen, P. Pracht,
     J. Seibert, S. Spicher, S. Grimme, WIREs Comput. Mol. Sci., 2020, 11,
     e01493. DOI: 10.1002/wcms.1493
   
   for GFN2-xTB:
   * C. Bannwarth, S. Ehlert and S. Grimme., J. Chem. Theory Comput., 2019,
     15, 1652-1671. DOI: 10.1021/acs.jctc.8b01176
   for GFN1-xTB:
   * S. Grimme, C. Bannwarth, P. Shushkov, J. Chem. Theory Comput., 2017,
     13, 1989-2009. DOI: 10.1021/acs.jctc.7b00118
   for GFN0-xTB:
   * P. Pracht, E. Caldeweyher, S. Ehlert, S. Grimme, ChemRxiv, 2019, preprint.
     DOI: 10.26434/chemrxiv.8326202.v1
   for GFN-FF:
   * S. Spicher and S. Grimme, Angew. Chem. Int. Ed., 2020, 59, 15665-15673.
     DOI: 10.1002/anie.202004239
   
   for DFT-D4:
   * E. Caldeweyher, C. Bannwarth and S. Grimme, J. Chem. Phys., 2017,
     147, 034112. DOI: 10.1063/1.4993215
   * E. Caldeweyher, S. Ehlert, A. Hansen, H. Neugebauer, S. Spicher,
     C. Bannwarth and S. Grimme, J. Chem. Phys., 2019, 150, 154122.
     DOI: 10.1063/1.5090222
   * E. Caldeweyher, J.-M. Mewes, S. Ehlert and S. Grimme, Phys. Chem. Chem. Phys.
     2020, 22, 8499-8512. DOI: 10.1039/D0CP00502A
   
   for sTDA-xTB:
   * S. Grimme and C. Bannwarth, J. Chem. Phys., 2016, 145, 054103.
     DOI: 10.1063/1.4959605
   
   in the mass-spec context:
   * V. Asgeirsson, C. Bauer and S. Grimme, Chem. Sci., 2017, 8, 4879.
     DOI: 10.1039/c7sc00601b
   * J. Koopman and S. Grimme, ACS Omega 2019, 4, 12, 15120-15133.
     DOI: 10.1021/acsomega.9b02011
   
   for metadynamics refer to:
   * S. Grimme, J. Chem. Theory Comput., 2019, 155, 2847-2862
     DOI: 10.1021/acs.jctc.9b00143
   
   for SPH calculations refer to:
   * S. Spicher and S. Grimme, J. Chem. Theory Comput., 2021, 17, 1701-1714
     DOI: 10.1021/acs.jctc.0c01306
   
   with help from (in alphabetical order)
   P. Atkinson, C. Bannwarth, F. Bohle, G. Brandenburg, E. Caldeweyher
   M. Checinski, S. Dohm, S. Ehlert, S. Ehrlich, I. Gerasimov, J. Koopman
   C. Lavigne, S. Lehtola, F. März, M. Müller, F. Musil, H. Neugebauer
   J. Pisarek, C. Plett, P. Pracht, J. Seibert, P. Shushkov, S. Spicher
   M. Stahn, M. Steiner, T. Strunk, J. Stückrath, T. Rose, and J. Unsleber
   
 * started run on 2021/11/15 at 09:36:12.583     

           -------------------------------------------------
          |                Calculation Setup                |
           -------------------------------------------------

          program call               : xtb 12_3-chlorophenol.xyz --gfn2 --chrg 0 --uhf 0 --alpb water --ohess -P 1
          coordinate file            : 12_3-chlorophenol.xyz
          omp threads                :                     1
          number of atoms            :                    13
          number of electrons        :                    42
          charge                     :                     0
          spin                       :                   0.0
          first test random number   :      0.38259980991528

   ID    Z sym.   atoms
    1    6 C      1-6
    2    8 O      7
    3    1 H      8-12
    4   17 Cl     13

           -------------------------------------------------
          |                 G F N 2 - x T B                 |
           -------------------------------------------------

        Reference                      10.1021/acs.jctc.8b01176
      * Hamiltonian:
        H0-scaling (s, p, d)           1.850000    2.230000    2.230000
        zeta-weighting                 0.500000
      * Dispersion:
        s8                             2.700000
        a1                             0.520000
        a2                             5.000000
        s9                             5.000000
      * Repulsion:
        kExp                           1.500000    1.000000
        rExp                           1.000000
      * Coulomb:
        alpha                          2.000000
        third order                    shell-resolved
        anisotropic                    true
        a3                             3.000000
        a5                             4.000000
        cn-shift                       1.200000
        cn-exp                         4.000000
        max-rad                        5.000000

      * Solvation model:               ALPB
        Solvent                        water
        Parameter file                 internal GFN2-xTB/ALPB
        Dielectric constant                8.0200E+01
        Reference state                gsolv [1 M gas/solution]
        Free energy shift                  1.0808E-03 Eh       6.7819E-01 kcal/mol
        Temperature                        2.9815E+02 K
        Density                            1.0000E+00 kg/L
        Solvent mass                       1.8000E+01 g/mol
        Interaction kernel             P16
        Born radius scaling (c1)           1.4744E+00
        Born radii integrator          GBOBC
        Born offset                        0.0000E+00 a0       0.0000E+00 AA
        H-bond correction              true
        Ion screening                  false
        Surface tension                    1.0000E-05 Eh       1.5569E+01 dyn/cm
        Grid points                               230 per atom

          ...................................................
          :                      SETUP                      :
          :.................................................:
          :  # basis functions                  43          :
          :  # atomic orbitals                  42          :
          :  # shells                           22          :
          :  # electrons                        42          :
          :  max. iterations                   250          :
          :  Hamiltonian                  GFN2-xTB          :
          :  restarted?                      false          :
          :  GBSA solvation                   true          :
          :  PC potential                    false          :
          :  electronic temp.          300.0000000     K    :
          :  accuracy                    1.0000000          :
          :  -> integral cutoff          0.2500000E+02      :
          :  -> integral neglect         0.1000000E-07      :
          :  -> SCF convergence          0.1000000E-05 Eh   :
          :  -> wf. convergence          0.1000000E-03 e    :
          :  Broyden damping             0.4000000          :
          ...................................................

 iter      E             dE          RMSdq      gap      omega  full diag
   1    -24.2918761 -0.242919E+02  0.513E+00    4.29       0.0  T
   2    -24.3077422 -0.158661E-01  0.310E+00    4.18       1.0  T
   3    -24.3009591  0.678314E-02  0.148E+00    4.18       1.0  T
   4    -24.3131272 -0.121681E-01  0.221E-01    4.15       1.0  T
   5    -24.3132595 -0.132354E-03  0.897E-02    4.19       1.0  T
   6    -24.3132795 -0.199362E-04  0.601E-02    4.18       1.0  T
   7    -24.3132909 -0.114860E-04  0.317E-02    4.18       1.0  T
   8    -24.3132952 -0.424611E-05  0.213E-02    4.19       1.3  T
   9    -24.3132983 -0.314728E-05  0.867E-03    4.18       3.2  T
  10    -24.3132987 -0.354460E-06  0.513E-03    4.18       5.4  T
  11    -24.3132988 -0.787395E-07  0.917E-04    4.18      30.2  T
  12    -24.3132988 -0.161595E-08  0.575E-04    4.18      48.2  T

   *** convergence criteria satisfied after 12 iterations ***

         #    Occupation            Energy/Eh            Energy/eV
      -------------------------------------------------------------
         1        2.0000           -1.0623804             -28.9088
       ...           ...                  ...                  ...
        15        2.0000           -0.4844831             -13.1835
        16        2.0000           -0.4512550             -12.2793
        17        2.0000           -0.4425771             -12.0431
        18        2.0000           -0.4384670             -11.9313
        19        2.0000           -0.4239706             -11.5368
        20        2.0000           -0.4045162             -11.0074
        21        2.0000           -0.3913214             -10.6484 (HOMO)
        22                         -0.2375588              -6.4643 (LUMO)
        23                         -0.2271993              -6.1824
        24                         -0.1485015              -4.0409
        25                         -0.1070656              -2.9134
        26                          0.0117790               0.3205
       ...                                ...                  ...
        42                          0.6274441              17.0736
      -------------------------------------------------------------
                  HL-Gap            0.1537626 Eh            4.1841 eV
             Fermi-level           -0.3144401 Eh           -8.5564 eV

 SCC (total)                   0 d,  0 h,  0 min,  0.008 sec
 SCC setup                      ...        0 min,  0.000 sec (  4.106%)
 Dispersion                     ...        0 min,  0.000 sec (  1.027%)
 classical contributions        ...        0 min,  0.000 sec (  0.212%)
 integral evaluation            ...        0 min,  0.001 sec ( 16.629%)
 iterations                     ...        0 min,  0.004 sec ( 47.376%)
 molecular gradient             ...        0 min,  0.002 sec ( 28.667%)
 printout                       ...        0 min,  0.000 sec (  1.704%)

         :::::::::::::::::::::::::::::::::::::::::::::::::::::
         ::                     SUMMARY                     ::
         :::::::::::::::::::::::::::::::::::::::::::::::::::::
         :: total energy             -24.014425872025 Eh    ::
         :: total w/o Gsasa/hb       -24.008970762738 Eh    ::
         :: gradient norm              0.021036906168 Eh/a0 ::
         :: HOMO-LUMO gap              4.184092302444 eV    ::
         ::.................................................::
         :: SCC energy               -24.313298773782 Eh    ::
         :: -> isotropic ES            0.034453067657 Eh    ::
         :: -> anisotropic ES         -0.001185037051 Eh    ::
         :: -> anisotropic XC          0.008015608027 Eh    ::
         :: -> dispersion             -0.010713289657 Eh    ::
         :: -> Gsolv                  -0.012488464262 Eh    ::
         ::    -> Gelec               -0.007033354975 Eh    ::
         ::    -> Gsasa                0.000071884976 Eh    ::
         ::    -> Ghb                 -0.006607753961 Eh    ::
         ::    -> Gshift               0.001080759698 Eh    ::
         :: repulsion energy           0.298856318650 Eh    ::
         :: add. restraining           0.000000000000 Eh    ::
         :: total charge              -0.000000000000 e     ::
         :::::::::::::::::::::::::::::::::::::::::::::::::::::

      ----------------------------------------------------------- 
     |                   =====================                   |
     |                        A N C O P T                        |
     |                   =====================                   |
     |               Approximate Normal Coordinate               |
     |                Rational Function Optimizer                |
      ----------------------------------------------------------- 

          ...................................................
          :                      SETUP                      :
          :.................................................:
          :   optimization level            normal          :
          :   max. optcycles                   200          :
          :   ANC micro-cycles                  20          :
          :   degrees of freedom                33          :
          :.................................................:
          :   RF solver                   davidson          :
          :   write xtbopt.log                true          :
          :   linear?                        false          :
          :   energy convergence         0.5000000E-05 Eh   :
          :   grad. convergence          0.1000000E-02 Eh/α :
          :   maximium RF displ.         1.0000000          :
          :   Hlow (freq-cutoff)         0.1000000E-01      :
          :   Hmax (freq-cutoff)         5.0000000          :
          :   S6 in model hess.         20.0000000          :
          ...................................................

generating ANC from model Hessian ...
Using Lindh-Hessian (1995)
 Shifting diagonal of input Hessian by   2.037886039454739E-003
 Lowest  eigenvalues of input Hessian
    0.000000    0.000000    0.000000    0.000000    0.000000    0.000000
    0.010000    0.011891    0.019242    0.028272    0.038591    0.043313
    0.053233    0.061370    0.081703    0.091794    0.097702    0.098707
 Highest eigenvalues
    1.446015    1.592416    1.702829    1.855153    1.982330    2.048018
 

........................................................................
.............................. CYCLE    1 ..............................
........................................................................
   1    -24.3132988 -0.243133E+02  0.163E-04    4.18       0.0  T
   2    -24.3132988 -0.454783E-10  0.119E-04    4.18     232.3  T
   3    -24.3132988 -0.195506E-10  0.918E-05    4.18     302.2  T
     SCC iter.                  ...        0 min,  0.001 sec
     gradient                   ...        0 min,  0.002 sec
 * total energy  :   -24.0144259 Eh     change       -0.9928094E-09 Eh
   gradient norm :     0.0210334 Eh/α   predicted     0.0000000E+00 (-100.00%)
   displ. norm   :     0.0669877 α      lambda       -0.1094358E-02
   maximum displ.:     0.0513131 α      in ANC's #18, #17, #20, ...

........................................................................
.............................. CYCLE    2 ..............................
........................................................................
   1    -24.3255099 -0.243255E+02  0.119E-01    4.23       0.0  T
   2    -24.3255214 -0.115057E-04  0.711E-02    4.24       1.0  T
   3    -24.3255227 -0.136293E-05  0.440E-02    4.24       1.0  T
   4    -24.3255287 -0.593169E-05  0.765E-03    4.24       3.6  T
   5    -24.3255288 -0.154624E-06  0.608E-03    4.24       4.6  T
   6    -24.3255290 -0.157026E-06  0.374E-03    4.24       7.4  T
   7    -24.3255291 -0.908279E-07  0.175E-03    4.24      15.8  T
   8    -24.3255291 -0.126711E-07  0.937E-04    4.24      29.6  T
   9    -24.3255291 -0.418700E-08  0.422E-04    4.24      65.8  T
     SCC iter.                  ...        0 min,  0.003 sec
     gradient                   ...        0 min,  0.002 sec
 * total energy  :   -24.0151068 Eh     change       -0.6809120E-03 Eh
   gradient norm :     0.0104542 Eh/α   predicted    -0.5496340E-03 ( -19.28%)
   displ. norm   :     0.0239175 α      lambda       -0.1565045E-03
   maximum displ.:     0.0152312 α      in ANC's #18, #17, #20, ...

........................................................................
.............................. CYCLE    3 ..............................
........................................................................
   1    -24.3284427 -0.243284E+02  0.565E-02    4.24       0.0  T
   2    -24.3284485 -0.574299E-05  0.337E-02    4.24       1.0  T
   3    -24.3284505 -0.198868E-05  0.210E-02    4.24       1.3  T
   4    -24.3284513 -0.820404E-06  0.596E-03    4.24       4.7  T
   5    -24.3284514 -0.952029E-07  0.448E-03    4.24       6.2  T
   6    -24.3284515 -0.625246E-07  0.341E-03    4.24       8.1  T
   7    -24.3284515 -0.841452E-07  0.104E-03    4.24      26.7  T
   8    -24.3284515 -0.375006E-08  0.597E-04    4.24      46.5  T
   9    -24.3284515 -0.191215E-08  0.195E-04    4.24     142.5  T
     SCC iter.                  ...        0 min,  0.003 sec
     gradient                   ...        0 min,  0.002 sec
 * total energy  :   -24.0152037 Eh     change       -0.9695641E-04 Eh
   gradient norm :     0.0048854 Eh/α   predicted    -0.7829596E-04 ( -19.25%)
   displ. norm   :     0.0121961 α      lambda       -0.3299065E-04
   maximum displ.:     0.0082998 α      in ANC's #5, #7, #28, ...

........................................................................
.............................. CYCLE    4 ..............................
........................................................................
   1    -24.3281572 -0.243282E+02  0.235E-02    4.23       0.0  T
   2    -24.3281587 -0.149650E-05  0.146E-02    4.24       1.9  T
   3    -24.3281592 -0.493658E-06  0.905E-03    4.24       3.1  T
   4    -24.3281593 -0.122991E-06  0.357E-03    4.24       7.8  T
   5    -24.3281593 -0.341480E-07  0.253E-03    4.24      10.9  T
   6    -24.3281593 -0.191886E-07  0.198E-03    4.24      14.0  T
   7    -24.3281594 -0.283642E-07  0.598E-04    4.24      46.4  T
   8    -24.3281594 -0.134758E-08  0.294E-04    4.24      94.4  T
     SCC iter.                  ...        0 min,  0.003 sec
     gradient                   ...        0 min,  0.002 sec
 * total energy  :   -24.0152245 Eh     change       -0.2072759E-04 Eh
   gradient norm :     0.0016472 Eh/α   predicted    -0.1649846E-04 ( -20.40%)
   displ. norm   :     0.0102519 α      lambda       -0.5709275E-05
   maximum displ.:     0.0081447 α      in ANC's #5, #18, #7, ...

........................................................................
.............................. CYCLE    5 ..............................
........................................................................
   1    -24.3272425 -0.243272E+02  0.108E-02    4.23       0.0  T
   2    -24.3272427 -0.220308E-06  0.704E-03    4.23       3.9  T
   3    -24.3272428 -0.438895E-07  0.433E-03    4.23       6.4  T
   4    -24.3272428 -0.405847E-07  0.191E-03    4.23      14.5  T
   5    -24.3272428 -0.985864E-08  0.135E-03    4.23      20.6  T
   6    -24.3272428 -0.581960E-08  0.101E-03    4.23      27.6  T
   7    -24.3272428 -0.709485E-08  0.410E-04    4.23      67.7  T
   8    -24.3272428 -0.942926E-09  0.121E-04    4.23     229.3  T
     SCC iter.                  ...        0 min,  0.003 sec
     gradient                   ...        0 min,  0.002 sec
 * total energy  :   -24.0152275 Eh     change       -0.3076532E-05 Eh
   gradient norm :     0.0007983 Eh/α   predicted    -0.2853603E-05 (  -7.25%)
   displ. norm   :     0.0020763 α      lambda       -0.6516931E-06
   maximum displ.:     0.0007377 α      in ANC's #5, #28, #8, ...

   *** GEOMETRY OPTIMIZATION CONVERGED AFTER 5 ITERATIONS ***

------------------------------------------------------------------------
 total energy gain   :        -0.0008017 Eh       -0.5031 kcal/mol
 total RMSD          :         0.0251689 a0        0.0133 Å
 total power (kW/mol):        -0.4209587 (step)  -60.9801 (real)
------------------------------------------------------------------------

 ANCopt (total)                0 d,  0 h,  0 min,  0.035 sec
 optimizer setup                ...        0 min,  0.000 sec (  0.463%)
 model hessian                  ...        0 min,  0.001 sec (  2.476%)
 ANC generation                 ...        0 min,  0.000 sec (  0.504%)
 coordinate transformation      ...        0 min,  0.000 sec (  0.077%)
 single point calculation       ...        0 min,  0.032 sec ( 91.740%)
 optimization log               ...        0 min,  0.001 sec (  2.649%)
 hessian update                 ...        0 min,  0.000 sec (  0.079%)
 rational function              ...        0 min,  0.000 sec (  1.173%)

================
 final structure:
================
13
 xtb: 6.4.1 (afa7bdf)
C         0.55379620811320    1.40775780664541   -0.00019498746711
C        -0.77162335535372    1.80853891750923    0.00014509358056
C        -1.79534073316693    0.87891657659492    0.00046957261982
C        -1.50015286071988   -0.48122578282285    0.00053274914647
C        -0.16982576690014   -0.89738770154188    0.00017637434830
C         0.83282183766439    0.05163928396871   -0.00024158205487
O        -2.45655355324804   -1.43697974405687    0.00076456749874
H        -3.34234732137378   -1.04111123629675    0.00104197363644
H        -1.00659832643858    2.86086578862608    0.00012426421575
H        -2.82281702474925    1.20959230615247    0.00064032832816
H         1.35420230518832    2.12856940676410   -0.00033674532214
H         0.05203716386929   -1.95186012360174    0.00026881334052
Cl        2.49064742711512   -0.47940449794084   -0.00016542187062
 
 Bond Distances (Angstroems)
 ---------------------------
C1-C2=1.3847         C1-C6=1.3845         C1-H11=1.0771        C2-C1=1.3847         C2-C3=1.3828         C2-H9=1.0782         
C3-C2=1.3828         C3-C4=1.3918         C3-H10=1.0794        C4-C3=1.3918         C4-C5=1.3939         C4-O7=1.3521         
C5-C4=1.3939         C5-C6=1.3806         C5-H12=1.0776        C6-C1=1.3845         C6-C5=1.3806         C6-Cl13=1.7408       
O7-C4=1.3521         O7-H8=0.9702         H8-O7=0.9702         H9-C2=1.0782         H10-C3=1.0794        H11-C1=1.0771        
H12-C5=1.0776        Cl13-C6=1.7408       
 C  H  Rav=1.0781 sigma=0.0008  Rmin=1.0771  Rmax=1.0794     4
 C  C  Rav=1.3864 sigma=0.0048  Rmin=1.3806  Rmax=1.3939     6
 O  H  Rav=0.9702 sigma=0.0000  Rmin=0.9702  Rmax=0.9702     1
 O  C  Rav=1.3521 sigma=0.0000  Rmin=1.3521  Rmax=1.3521     1
 Cl C  Rav=1.7408 sigma=0.0000  Rmin=1.7408  Rmax=1.7408     1
 
 selected bond angles (degree)
 --------------------
C6-C1-C2=118.45                H11-C1-C2=121.17               H11-C1-C6=120.38               C3-C2-C1=120.93                
H9-C2-C1=119.41                H9-C2-C3=119.65                C4-C3-C2=120.00                H10-C3-C2=119.92               
H10-C3-C4=120.08               C5-C4-C3=119.62                O7-C4-C3=122.74                O7-C4-C5=117.65                
C6-C5-C4=119.20                H12-C5-C4=119.25               H12-C5-C6=121.54               C5-C6-C1=121.80                
Cl13-C6-C1=119.39              Cl13-C6-C5=118.81              H8-O7-C4=110.94                
 
 selected dihedral angles (degree)
 ---------------------------------
C3-C2-C1-C6=  0.00            C3-C2-C1-H11=180.01           H9-C2-C1-C6=180.00            H9-C2-C1-H11=  0.00           
C4-C3-C2-C1=  0.00            C4-C3-C2-H9=180.00            H10-C3-C2-C1=180.01           H10-C3-C2-H9=  0.00           
C5-C4-C3-C2=  0.00            C5-C4-C3-H10=179.99           O7-C4-C3-C2=180.00            O7-C4-C3-H10=  0.00           
C6-C5-C4-C3=  0.00            C6-C5-C4-O7=179.99            H12-C5-C4-C3=180.00           H12-C5-C4-O7=  0.00           
C5-C6-C1-C2=  0.00            C5-C6-C1-H11=179.99           Cl13-C6-C1-C2=180.02          Cl13-C6-C1-H11=  0.00         
C1-C6-C5-C4=  0.00            C1-C6-C5-H12=180.01           Cl13-C6-C5-C4=179.98          Cl13-C6-C5-H12=  0.00         
H8-O7-C4-C3=  0.00            H8-O7-C4-C5=180.00            
           -------------------------------------------------
          |                Final Singlepoint                |
           -------------------------------------------------

          ...................................................
          :                      SETUP                      :
          :.................................................:
          :  # basis functions                  43          :
          :  # atomic orbitals                  42          :
          :  # shells                           22          :
          :  # electrons                        42          :
          :  max. iterations                   250          :
          :  Hamiltonian                  GFN2-xTB          :
          :  restarted?                      false          :
          :  GBSA solvation                   true          :
          :  PC potential                    false          :
          :  electronic temp.          300.0000000     K    :
          :  accuracy                    1.0000000          :
          :  -> integral cutoff          0.2500000E+02      :
          :  -> integral neglect         0.1000000E-07      :
          :  -> SCF convergence          0.1000000E-05 Eh   :
          :  -> wf. convergence          0.1000000E-03 e    :
          :  Broyden damping             0.4000000          :
          ...................................................

 iter      E             dE          RMSdq      gap      omega  full diag
   1    -24.3272428 -0.243272E+02  0.558E-05    4.23       0.0  T
   2    -24.3272428 -0.541078E-11  0.359E-05    4.23     773.5  T
   3    -24.3272428 -0.133227E-11  0.232E-05    4.23    1196.0  T

   *** convergence criteria satisfied after 3 iterations ***

         #    Occupation            Energy/Eh            Energy/eV
      -------------------------------------------------------------
         1        2.0000           -1.0631470             -28.9297
       ...           ...                  ...                  ...
        15        2.0000           -0.4866139             -13.2414
        16        2.0000           -0.4503777             -12.2554
        17        2.0000           -0.4435877             -12.0706
        18        2.0000           -0.4375136             -11.9054
        19        2.0000           -0.4235572             -11.5256
        20        2.0000           -0.4042776             -11.0010
        21        2.0000           -0.3903588             -10.6222 (HOMO)
        22                         -0.2348962              -6.3919 (LUMO)
        23                         -0.2243100              -6.1038
        24                         -0.1422907              -3.8719
        25                         -0.1022164              -2.7814
        26                          0.0107530               0.2926
       ...                                ...                  ...
        42                          0.6524853              17.7550
      -------------------------------------------------------------
                  HL-Gap            0.1554626 Eh            4.2304 eV
             Fermi-level           -0.3126275 Eh           -8.5070 eV

 SCC (total)                   0 d,  0 h,  0 min,  0.005 sec
 SCC setup                      ...        0 min,  0.000 sec (  4.735%)
 Dispersion                     ...        0 min,  0.000 sec (  0.495%)
 classical contributions        ...        0 min,  0.000 sec (  0.166%)
 integral evaluation            ...        0 min,  0.001 sec ( 22.744%)
 iterations                     ...        0 min,  0.001 sec ( 25.847%)
 molecular gradient             ...        0 min,  0.002 sec ( 43.282%)
 printout                       ...        0 min,  0.000 sec (  2.385%)

         :::::::::::::::::::::::::::::::::::::::::::::::::::::
         ::                     SUMMARY                     ::
         :::::::::::::::::::::::::::::::::::::::::::::::::::::
         :: total energy             -24.015227545637 Eh    ::
         :: total w/o Gsasa/hb       -24.009648417975 Eh    ::
         :: gradient norm              0.000798105299 Eh/a0 ::
         :: HOMO-LUMO gap              4.230352300887 eV    ::
         ::.................................................::
         :: SCC energy               -24.327242825539 Eh    ::
         :: -> isotropic ES            0.033771139853 Eh    ::
         :: -> anisotropic ES         -0.000834695997 Eh    ::
         :: -> anisotropic XC          0.007433506826 Eh    ::
         :: -> dispersion             -0.010775735563 Eh    ::
         :: -> Gsolv                  -0.012438524174 Eh    ::
         ::    -> Gelec               -0.006859396511 Eh    ::
         ::    -> Gsasa                0.000053180952 Eh    ::
         ::    -> Ghb                 -0.006713068312 Eh    ::
         ::    -> Gshift               0.001080759698 Eh    ::
         :: repulsion energy           0.311998981233 Eh    ::
         :: add. restraining           0.000000000000 Eh    ::
         :: total charge              -0.000000000000 e     ::
         :::::::::::::::::::::::::::::::::::::::::::::::::::::

           ------------------------------------------------- 
          |                Numerical Hessian                |
           ------------------------------------------------- 
step length          :   0.00500
SCC accuracy         :   0.30000
Hessian scale factor :   1.00000
frozen atoms in %    :   0.00000    0
RMS gradient         :   0.00080
estimated CPU  time      0.01 min
estimated wall time      0.01 min

writing file <hessian>.

 projected vibrational frequencies (cm⁻¹)
eigval :       -0.00     0.00     0.00     0.00     0.00     0.00
eigval :      173.88   221.58   230.80   378.35   408.73   416.56
eigval :      426.42   503.48   550.87   647.95   663.84   784.52
eigval :      865.65   873.22   876.12   915.98   983.23  1090.10
eigval :     1112.33  1124.09  1177.46  1230.77  1269.32  1329.95
eigval :     1428.95  1457.76  1572.51  1594.05  3089.36  3103.90
eigval :     3118.60  3120.61  3438.83
           -------------------------------------------------
          |                Property Printout                |
           -------------------------------------------------

    * Orbital Energies and Occupations

         #    Occupation            Energy/Eh            Energy/eV
      -------------------------------------------------------------
         1        2.0000           -1.0631471             -28.9297
       ...           ...                  ...                  ...
         9        2.0000           -0.5424930             -14.7620
        10        2.0000           -0.5300391             -14.4231
        11        2.0000           -0.5221278             -14.2078
        12        2.0000           -0.5022326             -13.6664
        13        2.0000           -0.4924101             -13.3992
        14        2.0000           -0.4868709             -13.2484
        15        2.0000           -0.4866140             -13.2414
        16        2.0000           -0.4503778             -12.2554
        17        2.0000           -0.4435878             -12.0706
        18        2.0000           -0.4375137             -11.9054
        19        2.0000           -0.4235573             -11.5256
        20        2.0000           -0.4042777             -11.0010
        21        2.0000           -0.3903589             -10.6222 (HOMO)
        22                         -0.2348963              -6.3919 (LUMO)
        23                         -0.2243101              -6.1038
        24                         -0.1422910              -3.8719
        25                         -0.1022165              -2.7815
        26                          0.0107529               0.2926
        27                          0.0154016               0.4191
        28                          0.0154802               0.4212
        29                          0.0283618               0.7718
        30                          0.0785666               2.1379
        31                          0.1189967               3.2381
        32                          0.1454453               3.9578
       ...                                ...                  ...
        42                          0.6524852              17.7550
      -------------------------------------------------------------
                  HL-Gap            0.1554626 Eh            4.2304 eV
             Fermi-level           -0.3126276 Eh           -8.5070 eV

     #   Z          covCN         q      C6AA      α(0)
     1   6 C        2.950    -0.057    29.419     8.896
     2   6 C        2.924    -0.033    28.823     8.804
     3   6 C        2.917    -0.079    29.972     8.977
     4   6 C        2.848     0.155    24.646     8.137
     5   6 C        2.956    -0.071    29.766     8.949
     6   6 C        2.891     0.099    25.801     8.328
     7   8 O        1.660    -0.441    21.669     6.284
     8   1 H        0.804     0.385     0.514     1.126
     9   1 H        0.926     0.068     2.102     2.267
    10   1 H        0.926     0.066     2.130     2.282
    11   1 H        0.926     0.064     2.157     2.296
    12   1 H        0.926     0.069     2.093     2.262
    13  17 Cl       0.965    -0.224   106.249    15.770

 Mol. C6AA /au·bohr⁶  :       2830.012149
 Mol. C8AA /au·bohr⁸  :      78815.420003
 Mol. α(0) /au        :         84.378504


Wiberg/Mayer (AO) data.
largest (>0.10) Wiberg bond orders for each atom

 ---------------------------------------------------------------------------
     #   Z sym  total        # sym  WBO       # sym  WBO       # sym  WBO
 ---------------------------------------------------------------------------
     1   6 C    3.985 --     2 C    1.431     6 C    1.401    11 H    0.967
     2   6 C    3.989 --     3 C    1.450     1 C    1.431     9 H    0.967
                             5 C    0.105
     3   6 C    3.985 --     2 C    1.450     4 C    1.364    10 H    0.964
     4   6 C    3.945 --     3 C    1.364     5 C    1.356     7 O    1.096
     5   6 C    3.984 --     6 C    1.428     4 C    1.356    12 H    0.965
                             2 C    0.105
     6   6 C    3.900 --     5 C    1.428     1 C    1.401    13 Cl   0.942
     7   8 O    2.098 --     4 C    1.096     8 H    0.832
     8   1 H    0.851 --     7 O    0.832
     9   1 H    0.995 --     2 C    0.967
    10   1 H    0.995 --     3 C    0.964
    11   1 H    0.996 --     1 C    0.967
    12   1 H    0.995 --     5 C    0.965
    13  17 Cl   1.065 --     6 C    0.942
 ---------------------------------------------------------------------------

Topologies differ in total number of bonds
Writing topology from bond orders to xtbtopo.mol

molecular dipole:
                 x           y           z       tot (Debye)
 q only:       -1.752       0.760       0.000
   full:       -1.576       0.760       0.000       4.446
molecular quadrupole (traceless):
                xx          xy          yy          xz          yz          zz
 q only:        3.198       0.174      -0.635      -0.003      -0.000      -2.563
  q+dip:        6.156      -1.333      -0.486      -0.005      -0.000      -5.669
   full:        5.915      -1.442      -2.118      -0.004       0.000      -3.797

           -------------------------------------------------
          |                Geometry Summary                 |
           -------------------------------------------------

      molecular mass/u    :      128.5564617
   center of mass at/Å    :        0.0696313      -0.0272803       0.0001459
  moments of inertia/u·Å² :        0.1451615E+03   0.4232761E+03   0.5684376E+03
rotational constants/cm⁻¹ :        0.1161302E+00   0.3982656E-01   0.2965608E-01

 * 13 selected distances

     #   Z          #   Z                                           value/Å
     1   6 C        2   6 C                                       1.3846886
     2   6 C        3   6 C                                       1.3828214
     3   6 C        4   6 C                                       1.3918057
     4   6 C        5   6 C                                       1.3939014
     1   6 C        6   6 C                                       1.3845262
     5   6 C        6   6 C                                       1.3805632
     4   6 C        7   8 O                                       1.3520976
     7   8 O        8   1 H                                       0.9702281 (min)
     2   6 C        9   1 H                                       1.0782417
     3   6 C       10   1 H                                       1.0793767
     1   6 C       11   1 H                                       1.0771348
     5   6 C       12   1 H                                       1.0775599
     6   6 C       13  17 Cl                                      1.7408025 (max)

 * 5 distinct bonds (by element types)

   Z      Z             #   av. dist./Å        max./Å        min./Å
   1 H    6 C           4     1.0780782     1.0793767     1.0771348
   6 C    6 C           6     1.3863844     1.3939014     1.3805632
   1 H    8 O           1     0.9702281     0.9702281     0.9702281
   6 C    8 O           1     1.3520976     1.3520976     1.3520976
   6 C   17 Cl          1     1.7408025     1.7408025     1.7408025

           -------------------------------------------------
          |               Frequency Printout                |
           -------------------------------------------------
 projected vibrational frequencies (cm⁻¹)
eigval :       -0.00     0.00     0.00     0.00     0.00     0.00
eigval :      173.88   221.58   230.80   378.35   408.73   416.56
eigval :      426.42   503.48   550.87   647.95   663.84   784.52
eigval :      865.65   873.22   876.12   915.98   983.23  1090.10
eigval :     1112.33  1124.09  1177.46  1230.77  1269.32  1329.95
eigval :     1428.95  1457.76  1572.51  1594.05  3089.36  3103.90
eigval :     3118.60  3120.61  3438.83
 reduced masses (amu)
   1: 15.76   2: 20.59   3: 18.47   4: 14.34   5: 13.04   6: 30.88   7: 14.66   8: 11.40
   9: 20.47  10: 25.41  11:  7.66  12: 11.49  13:  3.93  14: 12.65  15: 11.46  16:  9.97
  17: 13.27  18:  3.81  19:  3.62  20:  3.67  21: 12.83  22:  3.38  23: 10.91  24:  5.48
  25:  4.10  26:  3.29  27:  1.59  28:  6.65  29:  7.69  30: 11.61  31:  9.41  32:  9.77
  33: 11.54  34: 11.63  35:  1.80  36:  1.84  37:  1.88  38:  1.85  39:  1.86
 IR intensities (km·mol⁻¹)
   1:  0.75   2:  0.08   3:  0.55   4:  0.79   5:  0.93   6:  1.48   7:  2.33   8:  0.87
   9:  1.41  10:  0.58  11: 50.45  12: 15.49  13:153.91  14:  1.48  15:  0.74  16:  0.17
  17: 10.54  18: 57.25  19:  3.00  20:  0.13  21:160.38  22:  0.10  23: 10.48  24: 39.56
  25:178.76  26:109.78  27:  9.06  28: 16.53  29:274.89  30: 30.16  31: 19.24  32:204.86
  33: 71.43  34:196.69  35: 26.23  36: 45.82  37: 28.58  38:  9.19  39:187.14
 Raman intensities (amu)
   1:  0.00   2:  0.00   3:  0.00   4:  0.00   5:  0.00   6:  0.00   7:  0.00   8:  0.00
   9:  0.00  10:  0.00  11:  0.00  12:  0.00  13:  0.00  14:  0.00  15:  0.00  16:  0.00
  17:  0.00  18:  0.00  19:  0.00  20:  0.00  21:  0.00  22:  0.00  23:  0.00  24:  0.00
  25:  0.00  26:  0.00  27:  0.00  28:  0.00  29:  0.00  30:  0.00  31:  0.00  32:  0.00
  33:  0.00  34:  0.00  35:  0.00  36:  0.00  37:  0.00  38:  0.00  39:  0.00
 output can be read by thermo (or use thermo option).
 writing <g98.out> molden fake output.
 recommended (thermochemical) frequency scaling factor: 1.0
           -------------------------------------------------
          |             Thermodynamic Functions             |
           -------------------------------------------------

Molecule has the following symmetry elements: (sigma) 
It seems to be the Cs point group
cs  symmetry found (for desy threshold:  0.10E+00) used in thermo

          ...................................................
          :                      SETUP                      :
          :.................................................:
          :  # frequencies                          33      :
          :  # imaginary freq.                       0      :
          :  linear?                             false      :
          :  only rotor calc.                    false      :
          :  symmetry                               cs      :
          :  rotational number                       1      :
          :  scaling factor                  1.0000000      :
          :  rotor cutoff                   50.0000000 cm⁻¹ :
          :  imag. cutoff                  -20.0000000 cm⁻¹ :
          :.................................................:

    mode    ω/cm⁻¹     T·S(HO)/kcal·mol⁻¹    T·S(FR)/kcal·mol⁻¹   T·S(vib)
   ------------------------------------------------------------------------
       1    173.88    -0.71352 ( 99.32%)    -0.68726 (  0.68%)    -0.71334
       2    221.58    -0.58023 ( 99.74%)    -0.61545 (  0.26%)    -0.58032
       3    230.80    -0.55835 ( 99.78%)    -0.60338 (  0.22%)    -0.55844
   ------------------------------------------------------------------------

   temp. (K)  partition function   enthalpy   heat capacity  entropy
                                   cal/mol     cal/K/mol   cal/K/mol   J/K/mol
 298.15  VIB   10.6                 2528.693     20.491     13.166
         ROT  0.451E+06              888.752      2.981     28.855
         INT  0.477E+07             3417.445     23.472     42.022
         TR   0.141E+28             1481.254      4.968     40.448
         TOT                        4898.6992    28.4404    82.4703   345.0557

       T/K    H(0)-H(T)+PV         H(T)/Eh          T*S/Eh         G(T)/Eh
   ------------------------------------------------------------------------
    298.15    0.780657E-02    0.993429E-01    0.391843E-01    0.601586E-01
   ------------------------------------------------------------------------

         :::::::::::::::::::::::::::::::::::::::::::::::::::::
         ::                  THERMODYNAMIC                  ::
         :::::::::::::::::::::::::::::::::::::::::::::::::::::
         :: total free energy         -23.955068963072 Eh   ::
         ::.................................................::
         :: total energy              -24.015227546258 Eh   ::
         :: zero point energy           0.091536306274 Eh   ::
         :: G(RRHO) w/o ZPVE           -0.031377723088 Eh   ::
         :: G(RRHO) contrib.            0.060158583186 Eh   ::
         :::::::::::::::::::::::::::::::::::::::::::::::::::::

optimized geometry written to: xtbopt.xyz


           -------------------------------------------------
          | TOTAL ENERGY              -24.015227546258 Eh   |
          | TOTAL ENTHALPY            -23.915884665966 Eh   |
          | TOTAL FREE ENERGY         -23.955068963072 Eh   |
          | GRADIENT NORM               0.000798048187 Eh/α |
          | HOMO-LUMO GAP               4.230352404951 eV   |
           -------------------------------------------------

------------------------------------------------------------------------
 * finished run on 2021/11/15 at 09:36:13.159     
------------------------------------------------------------------------
 total:
 * wall-time:     0 d,  0 h,  0 min,  0.575 sec
 *  cpu-time:     0 d,  0 h,  0 min,  0.531 sec
 * ratio c/w:     0.923 speedup
 SCF:
 * wall-time:     0 d,  0 h,  0 min,  0.009 sec
 *  cpu-time:     0 d,  0 h,  0 min,  0.000 sec
 * ratio c/w:     0.000 speedup
 ANC optimizer:
 * wall-time:     0 d,  0 h,  0 min,  0.042 sec
 *  cpu-time:     0 d,  0 h,  0 min,  0.047 sec
 * ratio c/w:     1.129 speedup
 analytical hessian:
 * wall-time:     0 d,  0 h,  0 min,  0.469 sec
 *  cpu-time:     0 d,  0 h,  0 min,  0.469 sec
 * ratio c/w:     0.998 speedup

