 Entering Gaussian System
 *********************************************
 Gaussian 98:
 frequency output generated by the xtb code
 *********************************************
                         Standard orientation:
 --------------------------------------------------------------------
  Center     Atomic     Atomic              Coordinates (Angstroms)
  Number     Number      Type              X           Y           Z
 --------------------------------------------------------------------
    1          6             0        0.553804    1.407755   -0.000199
    2          6             0       -0.771614    1.808543    0.000145
    3          6             0       -1.795336    0.878926    0.000474
    4          6             0       -1.500155   -0.481218    0.000539
    5          6             0       -0.169830   -0.897387    0.000179
    6          6             0        0.832822    0.051635   -0.000245
    7          8             0       -2.456561   -1.436967    0.000776
    8          1             0       -3.342353   -1.041094    0.001055
    9          1             0       -1.006583    2.860871    0.000123
   10          1             0       -2.822811    1.209607    0.000648
   11          1             0        1.354213    2.128562   -0.000345
   12          1             0        0.052027   -1.951860    0.000272
   13         17             0        2.490645   -0.479418   -0.000173
 --------------------------------------------------------------------
     1 basis functions        1 primitive gaussians
     1 alpha electrons        1 beta electrons
 
 Harmonic frequencies (cm**-1), IR intensities (km*mol⁻¹),
 Raman scattering activities (A**4/amu), Raman depolarization ratios,
 reduced masses (AMU), force constants (mDyne/A) and normal coordinates:
                      1                      2                      3
                        a                      a                      a 
 Frequencies --   173.8761               221.5839               230.8016
 Red. masses --    14.6560                11.4041                20.4749
 Frc consts  --     0.0000                 0.0000                 0.0000
 IR Inten    --     2.3295                 0.8739                 1.4074
 Raman Activ --     0.0000                 0.0000                 0.0000
 Depolar     --     0.0000                 0.0000                 0.0000
 Atom AN      X      Y      Z        X      Y      Z        X      Y      Z
   1   6     0.00  -0.00   0.31    -0.00  -0.00  -0.45     0.05  -0.30   0.00
   2   6    -0.00  -0.00  -0.06     0.00  -0.00   0.01     0.12  -0.12   0.00
   3   6    -0.00  -0.00  -0.32     0.00   0.00   0.43     0.06  -0.04  -0.00
   4   6    -0.00   0.00   0.08    -0.00  -0.00   0.20    -0.09  -0.07  -0.00
   5   6     0.00   0.00   0.54    -0.00  -0.00   0.38    -0.12  -0.27  -0.00
   6   6     0.00   0.00   0.41    -0.00  -0.00   0.01    -0.05  -0.32  -0.00
   7   8    -0.00   0.00  -0.16    -0.00   0.00  -0.52    -0.44   0.25   0.00
   8   1    -0.00   0.00  -0.16    -0.00   0.00  -0.11    -0.07   0.15   0.00
   9   1    -0.00  -0.00  -0.08     0.00  -0.00  -0.02     0.07  -0.03   0.00
  10   1    -0.00  -0.00  -0.24     0.00   0.00   0.19     0.03   0.01  -0.00
  11   1     0.00   0.00   0.10    -0.00  -0.00  -0.29     0.04  -0.12   0.00
  12   1     0.00   0.00   0.21    -0.00  -0.00   0.15    -0.07  -0.09  -0.00
  13  17     0.00  -0.00  -0.42     0.00   0.00   0.02     0.31   0.50  -0.00
                      4                      5                      6
                        a                      a                      a 
 Frequencies --   378.3499               408.7310               416.5595
 Red. masses --    25.4067                 7.6573                11.4928
 Frc consts  --     0.0000                 0.0000                 0.0000
 IR Inten    --     0.5830                50.4547                15.4926
 Raman Activ --     0.0000                 0.0000                 0.0000
 Depolar     --     0.0000                 0.0000                 0.0000
 Atom AN      X      Y      Z        X      Y      Z        X      Y      Z
   1   6     0.22  -0.01  -0.00    -0.00   0.00  -0.21     0.06  -0.25  -0.00
   2   6     0.28   0.04   0.00    -0.00  -0.00   0.45     0.17   0.04   0.00
   3   6     0.36  -0.06  -0.00     0.00  -0.00  -0.25    -0.15   0.32  -0.00
   4   6     0.16  -0.11  -0.00     0.00  -0.00  -0.20    -0.22   0.29  -0.00
   5   6     0.08  -0.20   0.00     0.00   0.00   0.22    -0.29   0.04   0.00
   6   6    -0.11  -0.05  -0.00     0.00   0.00  -0.36    -0.07  -0.27  -0.00
   7   8     0.12  -0.04   0.00    -0.00   0.00   0.22     0.41  -0.32  -0.00
   8   1     0.04   0.01  -0.00    -0.00   0.00  -0.50     0.01  -0.28   0.00
   9   1     0.06   0.01   0.00    -0.00  -0.00   0.33     0.14   0.03   0.00
  10   1     0.10  -0.01  -0.00    -0.00  -0.00  -0.08    -0.02   0.16  -0.00
  11   1     0.11  -0.06  -0.00    -0.00   0.00  -0.06     0.06  -0.11  -0.00
  12   1     0.06  -0.05   0.00     0.00   0.00   0.23    -0.21  -0.01   0.00
  13  17    -0.72   0.27   0.00     0.00  -0.00   0.06     0.02   0.14   0.00
                      7                      8                      9
                        a                      a                      a 
 Frequencies --   426.4180               503.4843               550.8738
 Red. masses --     3.9317                12.6511                11.4585
 Frc consts  --     0.0000                 0.0000                 0.0000
 IR Inten    --   153.9086                 1.4793                 0.7414
 Raman Activ --     0.0000                 0.0000                 0.0000
 Depolar     --     0.0000                 0.0000                 0.0000
 Atom AN      X      Y      Z        X      Y      Z        X      Y      Z
   1   6    -0.00   0.00  -0.08     0.37   0.25  -0.00    -0.00  -0.00  -0.28
   2   6    -0.00  -0.00   0.25     0.26  -0.12  -0.00    -0.00   0.00   0.11
   3   6     0.00  -0.00  -0.24     0.12  -0.06  -0.00     0.00   0.00   0.06
   4   6     0.00  -0.00  -0.14    -0.34  -0.18  -0.00    -0.00  -0.00  -0.59
   5   6     0.00  -0.00   0.22    -0.15   0.30  -0.00     0.00  -0.00  -0.09
   6   6     0.00   0.00  -0.18     0.03   0.20   0.00     0.00   0.00   0.66
   7   8    -0.00   0.00  -0.16    -0.39  -0.41   0.00     0.00   0.00   0.18
   8   1     0.00   0.00   0.82    -0.11  -0.12   0.00     0.00   0.00   0.05
   9   1    -0.00  -0.00   0.18     0.02  -0.04   0.00     0.00   0.00   0.08
  10   1     0.00  -0.00  -0.09     0.07   0.10   0.00     0.00  -0.00   0.16
  11   1    -0.00   0.00  -0.01     0.10   0.08  -0.00    -0.00  -0.00  -0.19
  12   1     0.00   0.00   0.19     0.03   0.10  -0.00     0.00  -0.00   0.03
  13  17    -0.00  -0.00   0.02     0.08   0.03  -0.00    -0.00  -0.00  -0.07
                     10                     11                     12
                        a                      a                      a 
 Frequencies --   647.9489               663.8414               784.5171
 Red. masses --     9.9742                13.2714                 3.8123
 Frc consts  --     0.0000                 0.0000                 0.0000
 IR Inten    --     0.1721                10.5386                57.2496
 Raman Activ --     0.0000                 0.0000                 0.0000
 Depolar     --     0.0000                 0.0000                 0.0000
 Atom AN      X      Y      Z        X      Y      Z        X      Y      Z
   1   6    -0.00   0.00  -0.31    -0.18   0.16   0.00     0.00  -0.00   0.20
   2   6     0.00   0.00   0.37    -0.06   0.62  -0.00     0.00   0.00   0.18
   3   6     0.00   0.00  -0.33     0.34   0.09   0.00     0.00   0.00   0.24
   4   6     0.00  -0.00   0.53    -0.02  -0.11  -0.00    -0.00  -0.00  -0.26
   5   6    -0.00  -0.00  -0.29    -0.08  -0.32   0.00     0.00   0.00   0.16
   6   6    -0.00   0.00   0.31    -0.35   0.02  -0.00     0.00  -0.00  -0.15
   7   8    -0.00  -0.00  -0.07    -0.08  -0.22   0.00    -0.00  -0.00   0.07
   8   1    -0.00  -0.00   0.01    -0.04  -0.09  -0.00     0.00   0.00   0.01
   9   1    -0.00   0.00   0.02    -0.06   0.16   0.00    -0.00  -0.00  -0.40
  10   1    -0.00  -0.00  -0.29     0.07  -0.03   0.00    -0.00  -0.00  -0.50
  11   1    -0.00  -0.00  -0.21     0.04  -0.06   0.00    -0.00   0.00  -0.50
  12   1    -0.00  -0.00  -0.25     0.02  -0.08   0.00    -0.00  -0.00  -0.28
  13  17     0.00  -0.00   0.01     0.25  -0.10   0.00    -0.00   0.00   0.02
                     13                     14                     15
                        a                      a                      a 
 Frequencies --   865.6455               873.2227               876.1246
 Red. masses --     3.6198                 3.6740                12.8254
 Frc consts  --     0.0000                 0.0000                 0.0000
 IR Inten    --     3.0004                 0.1275               160.3757
 Raman Activ --     0.0000                 0.0000                 0.0000
 Depolar     --     0.0000                 0.0000                 0.0000
 Atom AN      X      Y      Z        X      Y      Z        X      Y      Z
   1   6    -0.00   0.00  -0.26    -0.00  -0.00   0.26     0.21   0.30   0.00
   2   6    -0.00  -0.00  -0.09    -0.00   0.00  -0.03     0.05  -0.33  -0.00
   3   6     0.00  -0.00   0.08    -0.00   0.00  -0.36     0.01  -0.20  -0.00
   4   6    -0.00  -0.00  -0.10     0.00  -0.00   0.04    -0.07   0.02  -0.00
   5   6     0.00   0.00   0.38     0.00   0.00   0.20    -0.28  -0.15   0.00
   6   6    -0.00   0.00   0.01     0.00  -0.00  -0.06    -0.55   0.11   0.00
   7   8     0.00   0.00   0.03    -0.00  -0.00  -0.00     0.33   0.30  -0.00
   8   1     0.00   0.00   0.01    -0.00   0.00  -0.00     0.05   0.01  -0.00
   9   1     0.00   0.00   0.24     0.00   0.00   0.09    -0.15  -0.13   0.00
  10   1    -0.00  -0.00  -0.14     0.00   0.00   0.60     0.02  -0.03   0.00
  11   1     0.00  -0.00   0.42    -0.00  -0.00  -0.48     0.08   0.06  -0.00
  12   1    -0.00  -0.00  -0.72    -0.00  -0.00  -0.40    -0.10  -0.04  -0.00
  13  17     0.00  -0.00   0.00    -0.00   0.00   0.01     0.17  -0.04   0.00
                     16                     17                     18
                        a                      a                      a 
 Frequencies --   915.9778               983.2321              1090.1032
 Red. masses --     3.3819                10.9138                 5.4818
 Frc consts  --     0.0000                 0.0000                 0.0000
 IR Inten    --     0.1049                10.4773                39.5619
 Raman Activ --     0.0000                 0.0000                 0.0000
 Depolar     --     0.0000                 0.0000                 0.0000
 Atom AN      X      Y      Z        X      Y      Z        X      Y      Z
   1   6    -0.00  -0.00  -0.17     0.27   0.24  -0.00    -0.18  -0.29   0.00
   2   6     0.00   0.00   0.38     0.04  -0.06   0.00     0.08  -0.10  -0.00
   3   6    -0.00  -0.00  -0.16    -0.52   0.30   0.00    -0.02   0.08   0.00
   4   6    -0.00  -0.00  -0.06     0.11   0.07  -0.00    -0.02  -0.11   0.00
   5   6     0.00   0.00   0.09     0.28  -0.50  -0.00     0.05   0.20  -0.00
   6   6    -0.00  -0.00  -0.05    -0.07   0.08  -0.00    -0.40   0.18   0.00
   7   8     0.00   0.00   0.01    -0.15  -0.13   0.00     0.06   0.00  -0.00
   8   1    -0.00  -0.00  -0.01    -0.03  -0.03   0.00     0.07   0.12   0.00
   9   1    -0.00  -0.00  -0.74     0.13   0.02  -0.00     0.33   0.04  -0.00
  10   1     0.00   0.00   0.33    -0.13   0.14   0.00     0.04   0.15  -0.00
  11   1     0.00  -0.00   0.36     0.07   0.07  -0.00     0.06  -0.21  -0.00
  12   1    -0.00  -0.00  -0.05     0.19  -0.12  -0.00     0.61   0.19  -0.00
  13  17     0.00  -0.00  -0.00    -0.01  -0.01   0.00     0.07  -0.03   0.00
                     19                     20                     21
                        a                      a                      a 
 Frequencies --  1112.3347              1124.0851              1177.4607
 Red. masses --     4.1017                 3.2866                 1.5926
 Frc consts  --     0.0000                 0.0000                 0.0000
 IR Inten    --   178.7646               109.7795                 9.0604
 Raman Activ --     0.0000                 0.0000                 0.0000
 Depolar     --     0.0000                 0.0000                 0.0000
 Atom AN      X      Y      Z        X      Y      Z        X      Y      Z
   1   6     0.22   0.00  -0.00     0.21  -0.03  -0.00    -0.00  -0.02   0.00
   2   6    -0.08   0.18   0.00    -0.04   0.18  -0.00    -0.12  -0.01   0.00
   3   6    -0.22  -0.02   0.00    -0.16  -0.15   0.00     0.00   0.04   0.00
   4   6     0.14  -0.11  -0.00    -0.07   0.02  -0.00    -0.07   0.02   0.00
   5   6    -0.13   0.15   0.00     0.05   0.10  -0.00     0.13  -0.01  -0.00
   6   6    -0.04  -0.00   0.00     0.02  -0.06   0.00     0.09  -0.08  -0.00
   7   8     0.02  -0.23  -0.00    -0.01   0.21   0.00     0.02   0.03  -0.00
   8   1     0.30   0.62   0.00    -0.21  -0.43  -0.00    -0.01  -0.02   0.00
   9   1    -0.02   0.05  -0.00    -0.05   0.05   0.00    -0.66  -0.14   0.00
  10   1    -0.12  -0.16   0.00    -0.20  -0.51   0.00     0.16   0.50  -0.00
  11   1     0.32  -0.28  -0.00     0.35  -0.32  -0.00     0.29  -0.32  -0.00
  12   1    -0.22   0.00   0.00     0.20   0.07  -0.00     0.16   0.02  -0.00
  13  17     0.01   0.01   0.00    -0.01   0.01  -0.00    -0.02   0.00   0.00
                     22                     23                     24
                        a                      a                      a 
 Frequencies --  1230.7720              1269.3238              1329.9546
 Red. masses --     6.6535                 7.6891                11.6132
 Frc consts  --     0.0000                 0.0000                 0.0000
 IR Inten    --    16.5318               274.8909                30.1648
 Raman Activ --     0.0000                 0.0000                 0.0000
 Depolar     --     0.0000                 0.0000                 0.0000
 Atom AN      X      Y      Z        X      Y      Z        X      Y      Z
   1   6     0.22   0.02  -0.00     0.04  -0.16  -0.00     0.29  -0.31  -0.00
   2   6    -0.03   0.22   0.00     0.11  -0.16  -0.00    -0.40  -0.08   0.00
   3   6    -0.07   0.04   0.00     0.15   0.24  -0.00     0.12   0.37  -0.00
   4   6    -0.31  -0.18   0.00     0.28   0.42  -0.00     0.26  -0.32  -0.00
   5   6    -0.26  -0.10   0.00    -0.03   0.07   0.00    -0.36  -0.09   0.00
   6   6     0.21  -0.29  -0.00    -0.22  -0.03   0.00     0.12   0.38  -0.00
   7   8     0.21   0.08  -0.00    -0.20  -0.26   0.00     0.01   0.07   0.00
   8   1     0.13   0.21   0.00     0.01   0.07   0.00    -0.08  -0.17  -0.00
   9   1    -0.17   0.03   0.00    -0.42  -0.15   0.00    -0.02  -0.00   0.00
  10   1    -0.06  -0.09   0.00    -0.10  -0.38   0.00     0.01   0.03  -0.00
  11   1    -0.22   0.33   0.00    -0.15   0.13   0.00    -0.01   0.01  -0.00
  12   1     0.49   0.09  -0.00     0.18   0.07  -0.00    -0.04  -0.01   0.00
  13  17    -0.03   0.02  -0.00     0.02  -0.00   0.00     0.00   0.01  -0.00
                     25                     26                     27
                        a                      a                      a 
 Frequencies --  1428.9484              1457.7597              1572.5057
 Red. masses --     9.4141                 9.7730                11.5432
 Frc consts  --     0.0000                 0.0000                 0.0000
 IR Inten    --    19.2426               204.8574                71.4263
 Raman Activ --     0.0000                 0.0000                 0.0000
 Depolar     --     0.0000                 0.0000                 0.0000
 Atom AN      X      Y      Z        X      Y      Z        X      Y      Z
   1   6    -0.27   0.22   0.00     0.11   0.26  -0.00    -0.38   0.32   0.00
   2   6    -0.08  -0.29   0.00    -0.38  -0.04   0.00     0.40  -0.08  -0.00
   3   6     0.27   0.17  -0.00     0.09  -0.25   0.00    -0.15   0.24   0.00
   4   6    -0.31   0.22   0.00     0.39   0.32  -0.00     0.38  -0.38  -0.00
   5   6    -0.17  -0.31   0.00    -0.31   0.06   0.00    -0.32   0.09   0.00
   6   6     0.36   0.20  -0.00     0.04  -0.34   0.00     0.11  -0.20  -0.00
   7   8     0.06  -0.07  -0.00    -0.12  -0.10   0.00    -0.01   0.06   0.00
   8   1     0.08   0.15  -0.00    -0.04  -0.06   0.00    -0.05  -0.10   0.00
   9   1     0.13  -0.05  -0.00     0.27   0.07  -0.00    -0.08  -0.06   0.00
  10   1    -0.01  -0.23   0.00     0.13   0.21  -0.00    -0.07  -0.03   0.00
  11   1     0.21  -0.25  -0.00     0.10   0.01  -0.00     0.05  -0.09  -0.00
  12   1     0.15  -0.05  -0.00     0.22   0.09  -0.00     0.04   0.05  -0.00
  13  17    -0.01  -0.00   0.00    -0.00   0.01  -0.00     0.01  -0.00  -0.00
                     28                     29                     30
                        a                      a                      a 
 Frequencies --  1594.0533              3089.3562              3103.9026
 Red. masses --    11.6251                 1.7996                 1.8395
 Frc consts  --     0.0000                 0.0000                 0.0000
 IR Inten    --   196.6933                26.2347                45.8166
 Raman Activ --     0.0000                 0.0000                 0.0000
 Depolar     --     0.0000                 0.0000                 0.0000
 Atom AN      X      Y      Z        X      Y      Z        X      Y      Z
   1   6     0.06   0.22  -0.00     0.01   0.00  -0.00     0.07   0.07  -0.00
   2   6    -0.35  -0.22   0.00     0.02  -0.09   0.00     0.05  -0.23   0.00
   3   6     0.23   0.45  -0.00    -0.24   0.08   0.00     0.10  -0.03  -0.00
   4   6    -0.15  -0.24   0.00    -0.01  -0.01   0.00     0.00   0.01  -0.00
   5   6     0.36   0.22  -0.00     0.00   0.01  -0.00    -0.00  -0.00   0.00
   6   6    -0.19  -0.43   0.00     0.00   0.00  -0.00     0.00   0.00  -0.00
   7   8     0.02   0.02  -0.00     0.00   0.00   0.00    -0.00  -0.00   0.00
   8   1     0.00   0.01   0.00     0.00   0.00   0.00    -0.00   0.00   0.00
   9   1     0.09  -0.02  -0.00    -0.08   0.35  -0.00    -0.18   0.80  -0.00
  10   1    -0.02  -0.12   0.00     0.85  -0.28  -0.00    -0.33   0.11   0.00
  11   1     0.06   0.02  -0.00    -0.03  -0.03   0.00    -0.27  -0.24   0.00
  12   1    -0.09   0.02   0.00     0.00  -0.03   0.00    -0.00   0.01  -0.00
  13  17    -0.00   0.01  -0.00     0.00  -0.00  -0.00    -0.00  -0.00   0.00
                     31                     32                     33
                        a                      a                      a 
 Frequencies --  3118.6000              3120.6145              3438.8313
 Red. masses --     1.8751                 1.8468                 1.8624
 Frc consts  --     0.0000                 0.0000                 0.0000
 IR Inten    --    28.5848                 9.1875               187.1358
 Raman Activ --     0.0000                 0.0000                 0.0000
 Depolar     --     0.0000                 0.0000                 0.0000
 Atom AN      X      Y      Z        X      Y      Z        X      Y      Z
   1   6    -0.18  -0.16   0.00    -0.06  -0.06   0.00     0.00  -0.00  -0.00
   2   6     0.02  -0.10   0.00     0.01  -0.04   0.00    -0.00  -0.00   0.00
   3   6     0.03  -0.01  -0.00     0.02  -0.01  -0.00     0.00   0.00  -0.00
   4   6    -0.00  -0.00   0.00     0.01   0.01  -0.00    -0.01  -0.00   0.00
   5   6     0.02  -0.09   0.00    -0.05   0.25  -0.00     0.00   0.00  -0.00
   6   6    -0.00   0.00   0.00    -0.01   0.00   0.00    -0.00   0.00  -0.00
   7   8    -0.00   0.00   0.00     0.00  -0.00  -0.00    -0.22   0.10   0.00
   8   1     0.00  -0.00  -0.00    -0.01   0.00   0.00     0.89  -0.39  -0.00
   9   1    -0.07   0.32  -0.00    -0.03   0.12  -0.00     0.00   0.00  -0.00
  10   1    -0.08   0.02   0.00    -0.06   0.02   0.00    -0.00  -0.00   0.00
  11   1     0.62   0.56  -0.00     0.22   0.20  -0.00    -0.00  -0.00  -0.00
  12   1    -0.07   0.32  -0.00     0.19  -0.88   0.00     0.00  -0.01   0.00
  13  17     0.00  -0.00   0.00     0.00  -0.00   0.00     0.00  -0.00   0.00
