13
 energy: -24.015227545637 gnorm: 0.000798105299 xtb: 6.4.1 (afa7bdf)
C         0.55380357841566    1.40775490661349   -0.00019937758144
C        -0.77161388535536    1.80854295794536    0.00014463055831
C        -1.79533612950118    0.87892597778318    0.00047430554240
C        -1.50015537851990   -0.48121792710370    0.00053882556524
C        -0.16983046498666   -0.89738681201475    0.00017853338906
C         0.83282210718696    0.05163492290134   -0.00024457927905
O        -2.45656107453014   -1.43696688021624    0.00077565049106
H        -3.34235276890976   -1.04109373397268    0.00105545771143
H        -1.00658334654407    2.86087105933590    0.00012278475401
H        -2.82281068905505    1.20960708748700    0.00064807068157
H         1.35421344913642    2.12856231555727   -0.00034518743439
H         0.05202694490278   -1.95186039556881    0.00027203833512
Cl        2.49064491633521   -0.47941753922168   -0.00017327915155
