      -----------------------------------------------------------      
     |                   =====================                   |     
     |                           x T B                           |     
     |                   =====================                   |     
     |                         S. Grimme                         |     
     |          Mulliken Center for Theoretical Chemistry        |     
     |                    University of Bonn                     |     
      -----------------------------------------------------------      

   * xtb version 6.4.1 (afa7bdf) compiled by 'ehlert@majestix' on 2021-06-10

   xtb is free software: you can redistribute it and/or modify it under
   the terms of the GNU Lesser General Public License as published by
   the Free Software Foundation, either version 3 of the License, or
   (at your option) any later version.
   
   xtb is distributed in the hope that it will be useful,
   but WITHOUT ANY WARRANTY; without even the implied warranty of
   MERCHANTABILITY or FITNESS FOR A PARTICULAR PURPOSE.  See the
   GNU Lesser General Public License for more details.
   
   Cite this work as:
   * C. Bannwarth, E. Caldeweyher, S. Ehlert, A. Hansen, P. Pracht,
     J. Seibert, S. Spicher, S. Grimme, WIREs Comput. Mol. Sci., 2020, 11,
     e01493. DOI: 10.1002/wcms.1493
   
   for GFN2-xTB:
   * C. Bannwarth, S. Ehlert and S. Grimme., J. Chem. Theory Comput., 2019,
     15, 1652-1671. DOI: 10.1021/acs.jctc.8b01176
   for GFN1-xTB:
   * S. Grimme, C. Bannwarth, P. Shushkov, J. Chem. Theory Comput., 2017,
     13, 1989-2009. DOI: 10.1021/acs.jctc.7b00118
   for GFN0-xTB:
   * P. Pracht, E. Caldeweyher, S. Ehlert, S. Grimme, ChemRxiv, 2019, preprint.
     DOI: 10.26434/chemrxiv.8326202.v1
   for GFN-FF:
   * S. Spicher and S. Grimme, Angew. Chem. Int. Ed., 2020, 59, 15665-15673.
     DOI: 10.1002/anie.202004239
   
   for DFT-D4:
   * E. Caldeweyher, C. Bannwarth and S. Grimme, J. Chem. Phys., 2017,
     147, 034112. DOI: 10.1063/1.4993215
   * E. Caldeweyher, S. Ehlert, A. Hansen, H. Neugebauer, S. Spicher,
     C. Bannwarth and S. Grimme, J. Chem. Phys., 2019, 150, 154122.
     DOI: 10.1063/1.5090222
   * E. Caldeweyher, J.-M. Mewes, S. Ehlert and S. Grimme, Phys. Chem. Chem. Phys.
     2020, 22, 8499-8512. DOI: 10.1039/D0CP00502A
   
   for sTDA-xTB:
   * S. Grimme and C. Bannwarth, J. Chem. Phys., 2016, 145, 054103.
     DOI: 10.1063/1.4959605
   
   in the mass-spec context:
   * V. Asgeirsson, C. Bauer and S. Grimme, Chem. Sci., 2017, 8, 4879.
     DOI: 10.1039/c7sc00601b
   * J. Koopman and S. Grimme, ACS Omega 2019, 4, 12, 15120-15133.
     DOI: 10.1021/acsomega.9b02011
   
   for metadynamics refer to:
   * S. Grimme, J. Chem. Theory Comput., 2019, 155, 2847-2862
     DOI: 10.1021/acs.jctc.9b00143
   
   for SPH calculations refer to:
   * S. Spicher and S. Grimme, J. Chem. Theory Comput., 2021, 17, 1701-1714
     DOI: 10.1021/acs.jctc.0c01306
   
   with help from (in alphabetical order)
   P. Atkinson, C. Bannwarth, F. Bohle, G. Brandenburg, E. Caldeweyher
   M. Checinski, S. Dohm, S. Ehlert, S. Ehrlich, I. Gerasimov, J. Koopman
   C. Lavigne, S. Lehtola, F. März, M. Müller, F. Musil, H. Neugebauer
   J. Pisarek, C. Plett, P. Pracht, J. Seibert, P. Shushkov, S. Spicher
   M. Stahn, M. Steiner, T. Strunk, J. Stückrath, T. Rose, and J. Unsleber
   
 * started run on 2021/11/15 at 09:36:12.274     

           -------------------------------------------------
          |                Calculation Setup                |
           -------------------------------------------------

          program call               : xtb 11_triclosan.xyz --gfn2 --chrg 0 --uhf 0 --alpb water --ohess -P 1
          coordinate file            : 11_triclosan.xyz
          omp threads                :                     1
          number of atoms            :                    24
          number of electrons        :                    88
          charge                     :                     0
          spin                       :                   0.0
          first test random number   :      0.54038904976708

   ID    Z sym.   atoms
    1    6 C      1-6, 13-17, 19
    2    1 H      7-9, 18, 20, 21, 23
    3    8 O      10, 22
    4   17 Cl     11, 12, 24

           -------------------------------------------------
          |                 G F N 2 - x T B                 |
           -------------------------------------------------

        Reference                      10.1021/acs.jctc.8b01176
      * Hamiltonian:
        H0-scaling (s, p, d)           1.850000    2.230000    2.230000
        zeta-weighting                 0.500000
      * Dispersion:
        s8                             2.700000
        a1                             0.520000
        a2                             5.000000
        s9                             5.000000
      * Repulsion:
        kExp                           1.500000    1.000000
        rExp                           1.000000
      * Coulomb:
        alpha                          2.000000
        third order                    shell-resolved
        anisotropic                    true
        a3                             3.000000
        a5                             4.000000
        cn-shift                       1.200000
        cn-exp                         4.000000
        max-rad                        5.000000

      * Solvation model:               ALPB
        Solvent                        water
        Parameter file                 internal GFN2-xTB/ALPB
        Dielectric constant                8.0200E+01
        Reference state                gsolv [1 M gas/solution]
        Free energy shift                  1.0808E-03 Eh       6.7819E-01 kcal/mol
        Temperature                        2.9815E+02 K
        Density                            1.0000E+00 kg/L
        Solvent mass                       1.8000E+01 g/mol
        Interaction kernel             P16
        Born radius scaling (c1)           1.4744E+00
        Born radii integrator          GBOBC
        Born offset                        0.0000E+00 a0       0.0000E+00 AA
        H-bond correction              true
        Ion screening                  false
        Surface tension                    1.0000E-05 Eh       1.5569E+01 dyn/cm
        Grid points                               230 per atom

          ...................................................
          :                      SETUP                      :
          :.................................................:
          :  # basis functions                  93          :
          :  # atomic orbitals                  90          :
          :  # shells                           44          :
          :  # electrons                        88          :
          :  max. iterations                   250          :
          :  Hamiltonian                  GFN2-xTB          :
          :  restarted?                      false          :
          :  GBSA solvation                   true          :
          :  PC potential                    false          :
          :  electronic temp.          300.0000000     K    :
          :  accuracy                    1.0000000          :
          :  -> integral cutoff          0.2500000E+02      :
          :  -> integral neglect         0.1000000E-07      :
          :  -> SCF convergence          0.1000000E-05 Eh   :
          :  -> wf. convergence          0.1000000E-03 e    :
          :  Broyden damping             0.4000000          :
          ...................................................

 iter      E             dE          RMSdq      gap      omega  full diag
   1    -51.5949220 -0.515949E+02  0.526E+00    3.89       0.0  T
   2    -51.6254546 -0.305327E-01  0.300E+00    3.75       1.0  T
   3    -51.6136904  0.117642E-01  0.115E+00    3.64       1.0  T
   4    -51.6302877 -0.165972E-01  0.286E-01    3.72       1.0  T
   5    -51.6309285 -0.640871E-03  0.100E-01    3.74       1.0  T
   6    -51.6309766 -0.481221E-04  0.695E-02    3.73       1.0  T
   7    -51.6310056 -0.289480E-04  0.373E-02    3.73       1.0  T
   8    -51.6310133 -0.766077E-05  0.279E-02    3.74       1.0  T
   9    -51.6310214 -0.818511E-05  0.136E-02    3.74       1.5  T
  10    -51.6310235 -0.201172E-05  0.512E-03    3.74       4.0  T
  11    -51.6310236 -0.136991E-06  0.295E-03    3.74       6.9  T
  12    -51.6310236 -0.552267E-07  0.162E-03    3.74      12.6  T
  13    -51.6310237 -0.153730E-07  0.919E-04    3.74      22.2  T
  14    -51.6310237 -0.474016E-08  0.682E-04    3.74      29.9  T

   *** convergence criteria satisfied after 14 iterations ***

         #    Occupation            Energy/Eh            Energy/eV
      -------------------------------------------------------------
         1        2.0000           -1.0652802             -28.9877
       ...           ...                  ...                  ...
        38        2.0000           -0.4289920             -11.6735
        39        2.0000           -0.4282587             -11.6535
        40        2.0000           -0.4249694             -11.5640
        41        2.0000           -0.4141451             -11.2695
        42        2.0000           -0.4134776             -11.2513
        43        2.0000           -0.3991041             -10.8602
        44        2.0000           -0.3884348             -10.5698 (HOMO)
        45                         -0.2510849              -6.8324 (LUMO)
        46                         -0.2488574              -6.7718
        47                         -0.2398639              -6.5270
        48                         -0.2374608              -6.4616
        49                         -0.1661407              -4.5209
       ...                                ...                  ...
        90                          0.6221693              16.9301
      -------------------------------------------------------------
                  HL-Gap            0.1373499 Eh            3.7375 eV
             Fermi-level           -0.3197598 Eh           -8.7011 eV

 SCC (total)                   0 d,  0 h,  0 min,  0.034 sec
 SCC setup                      ...        0 min,  0.001 sec (  1.751%)
 Dispersion                     ...        0 min,  0.000 sec (  0.664%)
 classical contributions        ...        0 min,  0.000 sec (  0.084%)
 integral evaluation            ...        0 min,  0.005 sec ( 14.535%)
 iterations                     ...        0 min,  0.019 sec ( 55.231%)
 molecular gradient             ...        0 min,  0.009 sec ( 26.769%)
 printout                       ...        0 min,  0.000 sec (  0.898%)

         :::::::::::::::::::::::::::::::::::::::::::::::::::::
         ::                     SUMMARY                     ::
         :::::::::::::::::::::::::::::::::::::::::::::::::::::
         :: total energy             -51.067638101695 Eh    ::
         :: total w/o Gsasa/hb       -51.060338538651 Eh    ::
         :: gradient norm              0.025191832776 Eh/a0 ::
         :: HOMO-LUMO gap              3.737480930832 eV    ::
         ::.................................................::
         :: SCC energy               -51.631023663573 Eh    ::
         :: -> isotropic ES            0.058081931737 Eh    ::
         :: -> anisotropic ES         -0.003682134290 Eh    ::
         :: -> anisotropic XC          0.011571775822 Eh    ::
         :: -> dispersion             -0.029010411296 Eh    ::
         :: -> Gsolv                  -0.018604570268 Eh    ::
         ::    -> Gelec               -0.011305007224 Eh    ::
         ::    -> Gsasa               -0.000756884210 Eh    ::
         ::    -> Ghb                 -0.007623438533 Eh    ::
         ::    -> Gshift               0.001080759698 Eh    ::
         :: repulsion energy           0.563351921481 Eh    ::
         :: add. restraining           0.000000000000 Eh    ::
         :: total charge               0.000000000000 e     ::
         :::::::::::::::::::::::::::::::::::::::::::::::::::::

      ----------------------------------------------------------- 
     |                   =====================                   |
     |                        A N C O P T                        |
     |                   =====================                   |
     |               Approximate Normal Coordinate               |
     |                Rational Function Optimizer                |
      ----------------------------------------------------------- 

          ...................................................
          :                      SETUP                      :
          :.................................................:
          :   optimization level            normal          :
          :   max. optcycles                   200          :
          :   ANC micro-cycles                  20          :
          :   degrees of freedom                66          :
          :.................................................:
          :   RF solver                   davidson          :
          :   write xtbopt.log                true          :
          :   linear?                        false          :
          :   energy convergence         0.5000000E-05 Eh   :
          :   grad. convergence          0.1000000E-02 Eh/α :
          :   maximium RF displ.         1.0000000          :
          :   Hlow (freq-cutoff)         0.1000000E-01      :
          :   Hmax (freq-cutoff)         5.0000000          :
          :   S6 in model hess.         20.0000000          :
          ...................................................

generating ANC from model Hessian ...
Using Lindh-Hessian (1995)
 Shifting diagonal of input Hessian by   9.094255915306467E-003
 Lowest  eigenvalues of input Hessian
    0.000000    0.000000    0.000000    0.000000    0.000000    0.000000
    0.010000    0.010312    0.010481    0.015209    0.015880    0.019432
    0.019708    0.025270    0.025434    0.029096    0.031976    0.034316
 Highest eigenvalues
    1.858294    1.879510    1.972092    2.024495    2.060535    2.133754
 

........................................................................
.............................. CYCLE    1 ..............................
........................................................................
   1    -51.6310237 -0.516310E+02  0.268E-04    3.74       0.0  T
   2    -51.6310237 -0.344990E-09  0.197E-04    3.74     103.7  T
   3    -51.6310237 -0.129489E-09  0.157E-04    3.74     130.2  T
     SCC iter.                  ...        0 min,  0.005 sec
     gradient                   ...        0 min,  0.009 sec
 * total energy  :   -51.0676381 Eh     change       -0.5077588E-08 Eh
   gradient norm :     0.0251921 Eh/α   predicted     0.0000000E+00 (-100.00%)
   displ. norm   :     0.1090293 α      lambda       -0.1621797E-02
   maximum displ.:     0.0420656 α      in ANC's #36, #4, #10, ...

........................................................................
.............................. CYCLE    2 ..............................
........................................................................
   1    -51.6482115 -0.516482E+02  0.966E-02    3.75       0.0  T
   2    -51.6482278 -0.162737E-04  0.604E-02    3.76       1.0  T
   3    -51.6482280 -0.232921E-06  0.349E-02    3.76       1.0  T
   4    -51.6482369 -0.892110E-05  0.118E-02    3.76       1.7  T
   5    -51.6482375 -0.590337E-06  0.954E-03    3.76       2.1  T
   6    -51.6482382 -0.683115E-06  0.604E-03    3.76       3.4  T
   7    -51.6482386 -0.442194E-06  0.174E-03    3.76      11.8  T
   8    -51.6482387 -0.182784E-07  0.915E-04    3.76      22.3  T
   9    -51.6482387 -0.578333E-08  0.483E-04    3.76      42.2  T
     SCC iter.                  ...        0 min,  0.012 sec
     gradient                   ...        0 min,  0.009 sec
 * total energy  :   -51.0687385 Eh     change       -0.1100416E-02 Eh
   gradient norm :     0.0141775 Eh/α   predicted    -0.8205461E-03 ( -25.43%)
   displ. norm   :     0.1072579 α      lambda       -0.5044987E-03
   maximum displ.:     0.0477237 α      in ANC's #1, #4, #3, ...

........................................................................
.............................. CYCLE    3 ..............................
........................................................................
   1    -51.6550400 -0.516550E+02  0.685E-02    3.75       0.0  T
   2    -51.6550528 -0.127585E-04  0.435E-02    3.76       1.0  T
   3    -51.6550547 -0.193460E-05  0.261E-02    3.76       1.0  T
   4    -51.6550585 -0.381661E-05  0.107E-02    3.76       1.9  T
   5    -51.6550591 -0.515769E-06  0.836E-03    3.76       2.4  T
   6    -51.6550595 -0.442905E-06  0.577E-03    3.76       3.5  T
   7    -51.6550599 -0.420153E-06  0.144E-03    3.76      14.1  T
   8    -51.6550599 -0.999132E-08  0.770E-04    3.76      26.5  T
   9    -51.6550599 -0.546041E-08  0.310E-04    3.76      65.8  T
     SCC iter.                  ...        0 min,  0.019 sec
     gradient                   ...        0 min,  0.009 sec
 * total energy  :   -51.0690467 Eh     change       -0.3081391E-03 Eh
   gradient norm :     0.0063050 Eh/α   predicted    -0.2551654E-03 ( -17.19%)
   displ. norm   :     0.0889824 α      lambda       -0.1141306E-03
   maximum displ.:     0.0522521 α      in ANC's #1, #2, #3, ...

........................................................................
.............................. CYCLE    4 ..............................
........................................................................
   1    -51.6546650 -0.516547E+02  0.330E-02    3.75       0.0  T
   2    -51.6546670 -0.205858E-05  0.206E-02    3.75       1.0  T
   3    -51.6546670  0.544879E-07  0.111E-02    3.75       1.8  T
   4    -51.6546678 -0.865993E-06  0.455E-03    3.75       4.5  T
   5    -51.6546679 -0.936236E-07  0.347E-03    3.75       5.9  T
   6    -51.6546680 -0.715530E-07  0.241E-03    3.75       8.5  T
   7    -51.6546681 -0.730006E-07  0.819E-04    3.75      24.9  T
   8    -51.6546681 -0.458581E-08  0.338E-04    3.75      60.4  T
     SCC iter.                  ...        0 min,  0.011 sec
     gradient                   ...        0 min,  0.009 sec
 * total energy  :   -51.0691334 Eh     change       -0.8676252E-04 Eh
   gradient norm :     0.0028267 Eh/α   predicted    -0.5843758E-04 ( -32.65%)
   displ. norm   :     0.1408753 α      lambda       -0.1053454E-03
   maximum displ.:     0.0858194 α      in ANC's #1, #2, #3, ...

........................................................................
.............................. CYCLE    5 ..............................
........................................................................
   1    -51.6527042 -0.516527E+02  0.457E-02    3.74       0.0  T
   2    -51.6527052 -0.105359E-05  0.274E-02    3.74       1.0  T
   3    -51.6527046  0.666133E-06  0.987E-03    3.74       2.1  T
   4    -51.6527057 -0.114193E-05  0.345E-03    3.74       5.9  T
   5    -51.6527058 -0.511106E-07  0.251E-03    3.74       8.1  T
   6    -51.6527058 -0.373651E-07  0.168E-03    3.74      12.1  T
   7    -51.6527058 -0.313920E-07  0.876E-04    3.74      23.3  T
   8    -51.6527058 -0.790007E-08  0.338E-04    3.74      60.5  T
     SCC iter.                  ...        0 min,  0.011 sec
     gradient                   ...        0 min,  0.009 sec
 * total energy  :   -51.0692117 Eh     change       -0.7832536E-04 Eh
   gradient norm :     0.0038130 Eh/α   predicted    -0.5380592E-04 ( -31.30%)
   displ. norm   :     0.1533553 α      lambda       -0.8061503E-04
   maximum displ.:     0.0972369 α      in ANC's #2, #1, #3, ...

........................................................................
.............................. CYCLE    6 ..............................
........................................................................
   1    -51.6511998 -0.516512E+02  0.497E-02    3.73       0.0  T
   2    -51.6512002 -0.439078E-06  0.292E-02    3.73       1.0  T
   3    -51.6511996  0.645737E-06  0.794E-03    3.73       2.6  T
   4    -51.6512005 -0.890648E-06  0.167E-03    3.73      12.2  T
   5    -51.6512005 -0.808266E-08  0.106E-03    3.73      19.2  T
   6    -51.6512005 -0.624554E-08  0.732E-04    3.73      27.9  T
   7    -51.6512005 -0.444427E-08  0.452E-04    3.73      45.1  T
     SCC iter.                  ...        0 min,  0.012 sec
     gradient                   ...        0 min,  0.009 sec
 * total energy  :   -51.0692810 Eh     change       -0.6924106E-04 Eh
   gradient norm :     0.0053922 Eh/α   predicted    -0.4128381E-04 ( -40.38%)
   displ. norm   :     0.1911908 α      lambda       -0.1041369E-03
   maximum displ.:     0.1247624 α      in ANC's #2, #1, #3, ...

........................................................................
.............................. CYCLE    7 ..............................
........................................................................
   1    -51.6502765 -0.516503E+02  0.640E-02    3.72       0.0  T
   2    -51.6502773 -0.876975E-06  0.376E-02    3.72       1.0  T
   3    -51.6502760  0.131121E-05  0.108E-02    3.72       1.9  T
   4    -51.6502778 -0.173350E-05  0.185E-03    3.72      11.0  T
   5    -51.6502778 -0.107855E-07  0.135E-03    3.72      15.1  T
   6    -51.6502778 -0.858115E-08  0.881E-04    3.72      23.2  T
   7    -51.6502778 -0.628406E-08  0.522E-04    3.72      39.1  T
     SCC iter.                  ...        0 min,  0.010 sec
     gradient                   ...        0 min,  0.009 sec
 * total energy  :   -51.0693747 Eh     change       -0.9371654E-04 Eh
   gradient norm :     0.0054654 Eh/α   predicted    -0.5397263E-04 ( -42.41%)
   displ. norm   :     0.2675958 α      lambda       -0.1500380E-03
   maximum displ.:     0.1788749 α      in ANC's #2, #1, #3, ...

........................................................................
.............................. CYCLE    8 ..............................
........................................................................
   1    -51.6500382 -0.516500E+02  0.921E-02    3.72       0.0  T
   2    -51.6500401 -0.183651E-05  0.542E-02    3.71       1.0  T
   3    -51.6500373  0.279772E-05  0.156E-02    3.71       1.3  T
   4    -51.6500410 -0.367654E-05  0.298E-03    3.71       6.9  T
   5    -51.6500410 -0.309884E-07  0.225E-03    3.71       9.1  T
   6    -51.6500410 -0.250127E-07  0.153E-03    3.71      13.3  T
   7    -51.6500410 -0.227580E-07  0.827E-04    3.71      24.7  T
   8    -51.6500410 -0.535178E-08  0.370E-04    3.71      55.1  T
     SCC iter.                  ...        0 min,  0.015 sec
     gradient                   ...        0 min,  0.014 sec
 * total energy  :   -51.0695055 Eh     change       -0.1307888E-03 Eh
   gradient norm :     0.0046427 Eh/α   predicted    -0.8039134E-04 ( -38.53%)
   displ. norm   :     0.3203933 α      lambda       -0.1682623E-03
   maximum displ.:     0.2199039 α      in ANC's #2, #1, #3, ...

........................................................................
.............................. CYCLE    9 ..............................
........................................................................
   1    -51.6503901 -0.516504E+02  0.112E-01    3.71       0.0  T
   2    -51.6503923 -0.220219E-05  0.662E-02    3.70       1.0  T
   3    -51.6503884  0.387646E-05  0.178E-02    3.70       1.1  T
   4    -51.6503934 -0.497842E-05  0.331E-03    3.70       6.2  T
   5    -51.6503934 -0.383068E-07  0.241E-03    3.70       8.5  T
   6    -51.6503934 -0.279346E-07  0.167E-03    3.70      12.2  T
   7    -51.6503935 -0.258654E-07  0.941E-04    3.70      21.7  T
   8    -51.6503935 -0.788638E-08  0.468E-04    3.70      43.6  T
     SCC iter.                  ...        0 min,  0.011 sec
     gradient                   ...        0 min,  0.009 sec
 * total energy  :   -51.0696460 Eh     change       -0.1404897E-03 Eh
   gradient norm :     0.0040776 Eh/α   predicted    -0.9276955E-04 ( -33.97%)
   displ. norm   :     0.3188051 α      lambda       -0.1548059E-03
   maximum displ.:     0.2244894 α      in ANC's #2, #1, #3, ...

........................................................................
.............................. CYCLE   10 ..............................
........................................................................
   1    -51.6512753 -0.516513E+02  0.113E-01    3.70       0.0  T
   2    -51.6512771 -0.177465E-05  0.666E-02    3.70       1.0  T
   3    -51.6512737  0.335281E-05  0.157E-02    3.69       1.3  T
   4    -51.6512780 -0.422881E-05  0.282E-03    3.70       7.2  T
   5    -51.6512780 -0.279742E-07  0.189E-03    3.70      10.8  T
   6    -51.6512780 -0.155178E-07  0.134E-03    3.70      15.2  T
   7    -51.6512780 -0.151611E-07  0.802E-04    3.70      25.5  T
   8    -51.6512780 -0.600026E-08  0.439E-04    3.70      46.5  T
     SCC iter.                  ...        0 min,  0.011 sec
     gradient                   ...        0 min,  0.009 sec
 * total energy  :   -51.0697715 Eh     change       -0.1255240E-03 Eh
   gradient norm :     0.0040258 Eh/α   predicted    -0.8527190E-04 ( -32.07%)
   displ. norm   :     0.3072717 α      lambda       -0.1407692E-03
   maximum displ.:     0.2206835 α      in ANC's #2, #1, #4, ...

........................................................................
.............................. CYCLE   11 ..............................
........................................................................
   1    -51.6526151 -0.516526E+02  0.110E-01    3.69       0.0  T
   2    -51.6526166 -0.149717E-05  0.645E-02    3.69       1.0  T
   3    -51.6526142  0.241897E-05  0.127E-02    3.69       1.6  T
   4    -51.6526173 -0.303488E-05  0.218E-03    3.69       9.4  T
   5    -51.6526173 -0.179047E-07  0.126E-03    3.69      16.2  T
   6    -51.6526173 -0.621401E-08  0.867E-04    3.69      23.5  T
   7    -51.6526173 -0.493461E-08  0.520E-04    3.69      39.3  T
     SCC iter.                  ...        0 min,  0.010 sec
     gradient                   ...        0 min,  0.009 sec
 * total energy  :   -51.0698829 Eh     change       -0.1113547E-03 Eh
   gradient norm :     0.0039788 Eh/α   predicted    -0.7703042E-04 ( -30.82%)
   displ. norm   :     0.3058743 α      lambda       -0.1210645E-03
   maximum displ.:     0.2199298 α      in ANC's #2, #1, #3, ...

........................................................................
.............................. CYCLE   12 ..............................
........................................................................
   1    -51.6536330 -0.516536E+02  0.109E-01    3.68       0.0  T
   2    -51.6536343 -0.129894E-05  0.639E-02    3.68       1.0  T
   3    -51.6536328  0.146781E-05  0.997E-03    3.68       2.0  T
   4    -51.6536347 -0.191636E-05  0.196E-03    3.68      10.4  T
   5    -51.6536347 -0.163955E-07  0.116E-03    3.68      17.7  T
   6    -51.6536347 -0.426703E-08  0.752E-04    3.68      27.2  T
   7    -51.6536347 -0.337133E-08  0.424E-04    3.68      48.1  T
     SCC iter.                  ...        0 min,  0.010 sec
     gradient                   ...        0 min,  0.009 sec
 * total energy  :   -51.0699774 Eh     change       -0.9452039E-04 Eh
   gradient norm :     0.0036904 Eh/α   predicted    -0.6619626E-04 ( -29.97%)
   displ. norm   :     0.3085481 α      lambda       -0.9820097E-04
   maximum displ.:     0.2199883 α      in ANC's #2, #1, #3, ...

........................................................................
.............................. CYCLE   13 ..............................
........................................................................
   1    -51.6537392 -0.516537E+02  0.108E-01    3.67       0.0  T
   2    -51.6537404 -0.111943E-05  0.637E-02    3.67       1.0  T
   3    -51.6537389  0.146319E-05  0.110E-02    3.67       1.9  T
   4    -51.6537409 -0.195128E-05  0.228E-03    3.67       9.0  T
   5    -51.6537409 -0.156025E-07  0.155E-03    3.67      13.2  T
   6    -51.6537409 -0.887563E-08  0.987E-04    3.67      20.7  T
   7    -51.6537409 -0.776118E-08  0.606E-04    3.67      33.7  T
     SCC iter.                  ...        0 min,  0.010 sec
     gradient                   ...        0 min,  0.009 sec
 * total energy  :   -51.0700527 Eh     change       -0.7530504E-04 Eh
   gradient norm :     0.0029473 Eh/α   predicted    -0.5377683E-04 ( -28.59%)
   displ. norm   :     0.2523263 α      lambda       -0.6956602E-04
   maximum displ.:     0.1766542 α      in ANC's #2, #1, #3, ...

........................................................................
.............................. CYCLE   14 ..............................
........................................................................
   1    -51.6538485 -0.516538E+02  0.878E-02    3.66       0.0  T
   2    -51.6538494 -0.862443E-06  0.517E-02    3.66       1.0  T
   3    -51.6538476  0.179672E-05  0.123E-02    3.66       1.7  T
   4    -51.6538499 -0.231689E-05  0.242E-03    3.66       8.4  T
   5    -51.6538499 -0.170519E-07  0.174E-03    3.66      11.7  T
   6    -51.6538499 -0.171759E-07  0.107E-03    3.66      19.0  T
   7    -51.6538499 -0.100570E-07  0.675E-04    3.66      30.3  T
   8    -51.6538499 -0.371703E-08  0.281E-04    3.66      72.6  T
     SCC iter.                  ...        0 min,  0.011 sec
     gradient                   ...        0 min,  0.009 sec
 * total energy  :   -51.0701051 Eh     change       -0.5237142E-04 Eh
   gradient norm :     0.0020934 Eh/α   predicted    -0.3699928E-04 ( -29.35%)
   displ. norm   :     0.1464885 α      lambda       -0.3774563E-04
   maximum displ.:     0.0973167 α      in ANC's #2, #3, #1, ...

........................................................................
.............................. CYCLE   15 ..............................
........................................................................
   1    -51.6539304 -0.516539E+02  0.512E-02    3.65       0.0  T
   2    -51.6539308 -0.477598E-06  0.302E-02    3.65       1.0  T
   3    -51.6539297  0.115089E-05  0.101E-02    3.65       2.0  T
   4    -51.6539312 -0.147706E-05  0.179E-03    3.65      11.4  T
   5    -51.6539312 -0.998406E-08  0.130E-03    3.65      15.7  T
   6    -51.6539312 -0.112577E-07  0.808E-04    3.65      25.3  T
   7    -51.6539312 -0.596259E-08  0.496E-04    3.65      41.2  T
     SCC iter.                  ...        0 min,  0.010 sec
     gradient                   ...        0 min,  0.009 sec
 * total energy  :   -51.0701352 Eh     change       -0.3013531E-04 Eh
   gradient norm :     0.0016614 Eh/α   predicted    -0.1928070E-04 ( -36.02%)
   displ. norm   :     0.1302094 α      lambda       -0.2384225E-04
   maximum displ.:     0.0910822 α      in ANC's #3, #2, #1, ...

........................................................................
.............................. CYCLE   16 ..............................
........................................................................
   1    -51.6536581 -0.516537E+02  0.461E-02    3.65       0.0  T
   2    -51.6536586 -0.504850E-06  0.272E-02    3.65       1.0  T
   3    -51.6536576  0.107114E-05  0.995E-03    3.65       2.1  T
   4    -51.6536590 -0.138708E-05  0.151E-03    3.65      13.5  T
   5    -51.6536590 -0.651772E-08  0.108E-03    3.65      18.9  T
   6    -51.6536590 -0.645001E-08  0.705E-04    3.65      29.0  T
   7    -51.6536590 -0.421587E-08  0.455E-04    3.65      44.8  T
     SCC iter.                  ...        0 min,  0.010 sec
     gradient                   ...        0 min,  0.009 sec
 * total energy  :   -51.0701633 Eh     change       -0.2806853E-04 Eh
   gradient norm :     0.0015130 Eh/α   predicted    -0.1201523E-04 ( -57.19%)
   displ. norm   :     0.0685885 α      lambda       -0.1458394E-04
   maximum displ.:     0.0631359 α      in ANC's #3, #1, #2, ...

........................................................................
.............................. CYCLE   17 ..............................
........................................................................
   1    -51.6539298 -0.516539E+02  0.269E-02    3.65       0.0  T
   2    -51.6539299 -0.639211E-07  0.158E-02    3.65       1.3  T
   3    -51.6539298  0.829364E-07  0.257E-03    3.65       7.9  T
   4    -51.6539299 -0.114874E-06  0.630E-04    3.65      32.4  T
   5    -51.6539299 -0.115455E-08  0.446E-04    3.65      45.8  T
     SCC iter.                  ...        0 min,  0.007 sec
     gradient                   ...        0 min,  0.009 sec
 * total energy  :   -51.0701820 Eh     change       -0.1870890E-04 Eh
   gradient norm :     0.0015003 Eh/α   predicted    -0.7319931E-05 ( -60.87%)
   displ. norm   :     0.0833495 α      lambda       -0.1586739E-04
   maximum displ.:     0.0659040 α      in ANC's #3, #2, #5, ...

........................................................................
.............................. CYCLE   18 ..............................
........................................................................
   1    -51.6527730 -0.516528E+02  0.309E-02    3.64       0.0  T
   2    -51.6527733 -0.250727E-06  0.182E-02    3.64       1.1  T
   3    -51.6527729  0.386555E-06  0.613E-03    3.64       3.3  T
   4    -51.6527734 -0.525236E-06  0.137E-03    3.64      14.9  T
   5    -51.6527734 -0.652464E-08  0.103E-03    3.64      19.7  T
   6    -51.6527734 -0.614784E-08  0.689E-04    3.64      29.6  T
   7    -51.6527734 -0.492160E-08  0.364E-04    3.64      56.0  T
     SCC iter.                  ...        0 min,  0.010 sec
     gradient                   ...        0 min,  0.009 sec
 * total energy  :   -51.0701987 Eh     change       -0.1669346E-04 Eh
   gradient norm :     0.0015042 Eh/α   predicted    -0.7961514E-05 ( -52.31%)
   displ. norm   :     0.0981995 α      lambda       -0.1528665E-04
   maximum displ.:     0.0705533 α      in ANC's #3, #1, #4, ...

........................................................................
.............................. CYCLE   19 ..............................
........................................................................
   1    -51.6537385 -0.516537E+02  0.395E-02    3.65       0.0  T
   2    -51.6537386 -0.114836E-06  0.232E-02    3.65       1.0  T
   3    -51.6537384  0.193456E-06  0.362E-03    3.65       5.6  T
   4    -51.6537386 -0.245666E-06  0.566E-04    3.65      36.1  T
   5    -51.6537386 -0.890246E-09  0.351E-04    3.65      58.2  T
     SCC iter.                  ...        0 min,  0.010 sec
     gradient                   ...        0 min,  0.011 sec
 * total energy  :   -51.0702141 Eh     change       -0.1542441E-04 Eh
   gradient norm :     0.0010532 Eh/α   predicted    -0.7676977E-05 ( -50.23%)
   displ. norm   :     0.0711953 α      lambda       -0.6940064E-05
   maximum displ.:     0.0554230 α      in ANC's #3, #2, #5, ...

........................................................................
.............................. CYCLE   20 ..............................
........................................................................
   1    -51.6536717 -0.516537E+02  0.264E-02    3.64       0.0  T
   2    -51.6536718 -0.890459E-07  0.156E-02    3.65       1.3  T
   3    -51.6536716  0.142372E-06  0.311E-03    3.64       6.6  T
   4    -51.6536718 -0.187072E-06  0.753E-04    3.65      27.1  T
   5    -51.6536718 -0.194709E-08  0.536E-04    3.65      38.1  T
     SCC iter.                  ...        0 min,  0.009 sec
     gradient                   ...        0 min,  0.009 sec
 * total energy  :   -51.0702219 Eh     change       -0.7789695E-05 Eh
   gradient norm :     0.0008119 Eh/α   predicted    -0.3486044E-05 ( -55.25%)
   displ. norm   :     0.0919589 α      lambda       -0.6018661E-05
   maximum displ.:     0.0626744 α      in ANC's #3, #2, #5, ...
 * RMSD in coord.:     0.5946583 α      energy gain  -0.2583780E-02 Eh

generating ANC from model Hessian ...
Using Lindh-Hessian (1995)
 Shifting diagonal of input Hessian by   8.929771243283955E-003
 Lowest  eigenvalues of input Hessian
    0.000000    0.000000    0.000000    0.000000    0.000000    0.000000
    0.010000    0.010278    0.010457    0.015392    0.016734    0.020087
    0.020672    0.026471    0.026805    0.030552    0.032997    0.035004
 Highest eigenvalues
    1.887560    1.910052    2.011303    2.070721    2.104980    2.179728
 

........................................................................
.............................. CYCLE   21 ..............................
........................................................................
   1    -51.6535679 -0.516536E+02  0.320E-02    3.64       0.0  T
   2    -51.6535681 -0.159304E-06  0.188E-02    3.64       1.1  T
   3    -51.6535679  0.201433E-06  0.429E-03    3.64       4.8  T
   4    -51.6535682 -0.282665E-06  0.109E-03    3.64      18.7  T
   5    -51.6535682 -0.394048E-08  0.806E-04    3.64      25.3  T
   6    -51.6535682 -0.370547E-08  0.514E-04    3.64      39.7  T
     SCC iter.                  ...        0 min,  0.009 sec
     gradient                   ...        0 min,  0.009 sec
 * total energy  :   -51.0702275 Eh     change       -0.5596952E-05 Eh
   gradient norm :     0.0007345 Eh/α   predicted     0.0000000E+00 (-100.00%)
   displ. norm   :     0.0097233 α      lambda       -0.1326294E-05
   maximum displ.:     0.0068338 α      in ANC's #2, #4, #5, ...

........................................................................
.............................. CYCLE   22 ..............................
........................................................................
   1    -51.6537047 -0.516537E+02  0.568E-03    3.64       0.0  T
   2    -51.6537047 -0.212042E-07  0.346E-03    3.64       5.9  T
   3    -51.6537047  0.226698E-07  0.166E-03    3.64      12.3  T
   4    -51.6537047 -0.366655E-07  0.405E-04    3.64      50.4  T
   5    -51.6537047 -0.626287E-09  0.314E-04    3.64      65.1  T
     SCC iter.                  ...        0 min,  0.007 sec
     gradient                   ...        0 min,  0.009 sec
 * total energy  :   -51.0702287 Eh     change       -0.1228602E-05 Eh
   gradient norm :     0.0003079 Eh/α   predicted    -0.6994605E-06 ( -43.07%)
   displ. norm   :     0.0106842 α      lambda       -0.5630509E-06
   maximum displ.:     0.0085699 α      in ANC's #2, #5, #3, ...

   *** GEOMETRY OPTIMIZATION CONVERGED AFTER 22 ITERATIONS ***

------------------------------------------------------------------------
 total energy gain   :        -0.0025906 Eh       -1.6256 kcal/mol
 total RMSD          :         0.5951326 a0        0.3149 Å
 total power (kW/mol):        -0.3091652 (step)  -12.0282 (real)
------------------------------------------------------------------------

 ANCopt (total)                0 d,  0 h,  0 min,  0.565 sec
 optimizer setup                ...        0 min,  0.000 sec (  0.029%)
 model hessian                  ...        0 min,  0.006 sec (  1.005%)
 ANC generation                 ...        0 min,  0.001 sec (  0.177%)
 coordinate transformation      ...        0 min,  0.000 sec (  0.040%)
 single point calculation       ...        0 min,  0.552 sec ( 97.560%)
 optimization log               ...        0 min,  0.004 sec (  0.708%)
 hessian update                 ...        0 min,  0.000 sec (  0.035%)
 rational function              ...        0 min,  0.001 sec (  0.236%)

================
 final structure:
================
24
 xtb: 6.4.1 (afa7bdf)
C        -2.19089918561846   -1.71947573791368    0.10700663120174
C        -3.35804075653003   -1.02154391533529   -0.15160600176554
C        -3.38262782508355    0.36384492042969   -0.13611713620135
C        -2.21157127104034    1.04739953822066    0.13100449233861
C        -1.01739021508241    0.36849840355227    0.38839848991478
C        -1.02924509931993   -1.02283777964445    0.38169110301346
H        -4.29227197671961    0.90593089434383   -0.33280126378484
H        -0.11869627850193   -1.55821087695878    0.59982064158148
H        -2.18901025992198   -2.79655034109551    0.10001712299358
O         0.07749729258445    1.11583345229565    0.69385903353045
Cl       -4.82194457045360   -1.88549594277171   -0.49413173187953
Cl       -2.20955540375428    2.77776483728340    0.15509619990371
C         1.33801090076980    0.60359597641412    0.46519325075364
C         1.68553485090174    0.01097035119749   -0.76092366307138
C         2.29730930924979    0.77788831218225    1.44947702640954
C         2.99505759520309   -0.41273604549369   -0.95170072239076
C         3.60299011231917    0.36376572675518    1.25175852466702
H         2.00297171235777    1.25074123548724    2.37175983870797
C         3.93423557361363   -0.23382243998500    0.04968553323071
H         3.28531340844693   -0.86986163522616   -1.88429294190092
H         4.34460401014122    0.50156116717828    2.01972526114062
O         0.73402214397683   -0.12229586637602   -1.71107937108924
H         1.09814388809042   -0.52190944926197   -2.51683386597846
Cl        5.56504904437116   -0.76934478527810   -0.22404445132511
 
 Bond Distances (Angstroems)
 ---------------------------
C1-C2=1.3843         C1-C6=1.3821         C1-H9=1.0771         C2-C1=1.3843         C2-C3=1.3857         C2-Cl11=1.7340       
C3-C2=1.3857         C3-C4=1.3820         C3-H7=1.0770         C4-C3=1.3820         C4-C5=1.3976         C4-Cl12=1.7305       
C5-C4=1.3976         C5-C6=1.3914         C5-O10=1.3604        C6-C1=1.3821         C6-C5=1.3914         C6-H8=1.0786         
H7-C3=1.0770         H8-C6=1.0786         H9-C1=1.0771         O10-C5=1.3604        O10-C13=1.3797       Cl11-C2=1.7340       
Cl12-C4=1.7305       C13-O10=1.3797       C13-C14=1.4055       C13-C15=1.3854       C14-C13=1.4055       C14-C16=1.3895       
C14-O22=1.3513       C15-C13=1.3854       C15-C17=1.3840       C15-H18=1.0774       C16-C14=1.3895       C16-C19=1.3845       
C16-H20=1.0784       C17-C15=1.3840       C17-C19=1.3827       C17-H21=1.0765       H18-C15=1.0774       C19-C16=1.3845       
C19-C17=1.3827       C19-Cl24=1.7382      H20-C16=1.0784       H21-C17=1.0765       O22-C14=1.3513       O22-H23=0.9703       
H23-O22=0.9703       Cl24-C19=1.7382      
 C  H  Rav=1.0775 sigma=0.0008  Rmin=1.0765  Rmax=1.0786     6
 C  C  Rav=1.3879 sigma=0.0069  Rmin=1.3820  Rmax=1.4055    12
 O  H  Rav=0.9703 sigma=0.0000  Rmin=0.9703  Rmax=0.9703     1
 O  C  Rav=1.3638 sigma=0.0119  Rmin=1.3513  Rmax=1.3797     3
 Cl C  Rav=1.7342 sigma=0.0031  Rmin=1.7305  Rmax=1.7382     3
 
 selected bond angles (degree)
 --------------------
C6-C1-C2=119.45                H9-C1-C2=120.29                H9-C1-C6=120.25                C3-C2-C1=121.13                
Cl11-C2-C1=119.84              Cl11-C2-C3=119.04              C4-C3-C2=118.79                H7-C3-C2=121.07                
H7-C3-C4=120.13                C5-C4-C3=121.29                Cl12-C4-C3=119.88              Cl12-C4-C5=118.83              
C6-C5-C4=118.53                O10-C5-C4=117.53               O10-C5-C6=123.87               C5-C6-C1=120.81                
H8-C6-C1=119.97                H8-C6-C5=119.22                C13-O10-C5=119.61              
 
 selected dihedral angles (degree)
 ---------------------------------
C3-C2-C1-C6=359.82            C3-C2-C1-H9=179.46            Cl11-C2-C1-C6=180.13          Cl11-C2-C1-H9=359.77          
C4-C3-C2-C1=  0.62            C4-C3-C2-Cl11=180.31          H7-C3-C2-C1=180.30            H7-C3-C2-Cl11=  0.00          
C5-C4-C3-C2=359.73            C5-C4-C3-H7=180.05            Cl12-C4-C3-C2=179.91          Cl12-C4-C3-H7=  0.23          
C6-C5-C4-C3=359.49            C6-C5-C4-Cl12=179.32          O10-C5-C4-C3=182.53           O10-C5-C4-Cl12=  2.35         
C5-C6-C1-C2=359.38            C5-C6-C1-H9=179.74            H8-C6-C1-C2=179.03            H8-C6-C1-H9=359.39            
C1-C6-C5-C4=  0.96            C1-C6-C5-O10=177.71           H8-C6-C5-C4=181.30            H8-C6-C5-O10=358.06           
C13-O10-C5-C4=204.40          C13-O10-C5-C6= 27.61          
           -------------------------------------------------
          |                Final Singlepoint                |
           -------------------------------------------------

          ...................................................
          :                      SETUP                      :
          :.................................................:
          :  # basis functions                  93          :
          :  # atomic orbitals                  90          :
          :  # shells                           44          :
          :  # electrons                        88          :
          :  max. iterations                   250          :
          :  Hamiltonian                  GFN2-xTB          :
          :  restarted?                      false          :
          :  GBSA solvation                   true          :
          :  PC potential                    false          :
          :  electronic temp.          300.0000000     K    :
          :  accuracy                    1.0000000          :
          :  -> integral cutoff          0.2500000E+02      :
          :  -> integral neglect         0.1000000E-07      :
          :  -> SCF convergence          0.1000000E-05 Eh   :
          :  -> wf. convergence          0.1000000E-03 e    :
          :  Broyden damping             0.4000000          :
          ...................................................

 iter      E             dE          RMSdq      gap      omega  full diag
   1    -51.6537047 -0.516537E+02  0.212E-04    3.64       0.0  T
   2    -51.6537047 -0.158387E-09  0.181E-04    3.64     112.7  T
   3    -51.6537047 -0.242501E-09  0.116E-04    3.64     175.7  T

   *** convergence criteria satisfied after 3 iterations ***

         #    Occupation            Energy/Eh            Energy/eV
      -------------------------------------------------------------
         1        2.0000           -1.0655493             -28.9951
       ...           ...                  ...                  ...
        38        2.0000           -0.4282346             -11.6529
        39        2.0000           -0.4279880             -11.6461
        40        2.0000           -0.4253571             -11.5746
        41        2.0000           -0.4148966             -11.2899
        42        2.0000           -0.4117672             -11.2048
        43        2.0000           -0.4009465             -10.9103
        44        2.0000           -0.3835145             -10.4360 (HOMO)
        45                         -0.2496166              -6.7924 (LUMO)
        46                         -0.2485841              -6.7643
        47                         -0.2368379              -6.4447
        48                         -0.2313391              -6.2951
        49                         -0.1598848              -4.3507
       ...                                ...                  ...
        90                          0.6391634              17.3925
      -------------------------------------------------------------
                  HL-Gap            0.1338980 Eh            3.6435 eV
             Fermi-level           -0.3165656 Eh           -8.6142 eV

 SCC (total)                   0 d,  0 h,  0 min,  0.019 sec
 SCC setup                      ...        0 min,  0.000 sec (  2.562%)
 Dispersion                     ...        0 min,  0.000 sec (  0.419%)
 classical contributions        ...        0 min,  0.000 sec (  0.121%)
 integral evaluation            ...        0 min,  0.004 sec ( 23.256%)
 iterations                     ...        0 min,  0.005 sec ( 26.113%)
 molecular gradient             ...        0 min,  0.009 sec ( 45.908%)
 printout                       ...        0 min,  0.000 sec (  1.524%)

         :::::::::::::::::::::::::::::::::::::::::::::::::::::
         ::                     SUMMARY                     ::
         :::::::::::::::::::::::::::::::::::::::::::::::::::::
         :: total energy             -51.070228708381 Eh    ::
         :: total w/o Gsasa/hb       -51.062743362645 Eh    ::
         :: gradient norm              0.000311574324 Eh/a0 ::
         :: HOMO-LUMO gap              3.643549324278 eV    ::
         ::.................................................::
         :: SCC energy               -51.653704711001 Eh    ::
         :: -> isotropic ES            0.055625412868 Eh    ::
         :: -> anisotropic ES         -0.002878079344 Eh    ::
         :: -> anisotropic XC          0.011003129283 Eh    ::
         :: -> dispersion             -0.029542887839 Eh    ::
         :: -> Gsolv                  -0.017819869818 Eh    ::
         ::    -> Gelec               -0.010334524082 Eh    ::
         ::    -> Gsasa               -0.000996099872 Eh    ::
         ::    -> Ghb                 -0.007570005562 Eh    ::
         ::    -> Gshift               0.001080759698 Eh    ::
         :: repulsion energy           0.583461335987 Eh    ::
         :: add. restraining           0.000000000000 Eh    ::
         :: total charge               0.000000000000 e     ::
         :::::::::::::::::::::::::::::::::::::::::::::::::::::

           ------------------------------------------------- 
          |                Numerical Hessian                |
           ------------------------------------------------- 
step length          :   0.00500
SCC accuracy         :   0.30000
Hessian scale factor :   1.00000
frozen atoms in %    :   0.00000    0
RMS gradient         :   0.00032
estimated CPU  time      0.05 min
estimated wall time      0.05 min

writing file <hessian>.

 projected vibrational frequencies (cm⁻¹)
eigval :       -0.00    -0.00     0.00     0.00     0.00     0.00
eigval :       25.74    31.72    44.33   102.31   122.73   143.39
eigval :      165.90   201.84   208.84   225.67   256.31   303.78
eigval :      344.86   361.43   364.24   383.26   416.05   420.97
eigval :      445.84   455.40   501.22   528.46   549.46   558.85
eigval :      627.05   636.95   655.90   674.90   731.68   788.49
eigval :      820.57   826.42   849.58   855.92   866.17   882.22
eigval :      900.57   902.08  1020.70  1070.76  1097.46  1099.45
eigval :     1120.00  1147.18  1172.72  1214.61  1230.91  1242.20
eigval :     1277.43  1312.98  1327.93  1386.44  1406.56  1432.27
eigval :     1467.75  1554.64  1563.05  1568.88  1581.60  3105.19
eigval :     3105.46  3118.12  3123.02  3124.50  3129.06  3434.56
           -------------------------------------------------
          |                Property Printout                |
           -------------------------------------------------

    * Orbital Energies and Occupations

         #    Occupation            Energy/Eh            Energy/eV
      -------------------------------------------------------------
         1        2.0000           -1.0655493             -28.9951
       ...           ...                  ...                  ...
        32        2.0000           -0.4702071             -12.7950
        33        2.0000           -0.4659154             -12.6782
        34        2.0000           -0.4565838             -12.4243
        35        2.0000           -0.4528401             -12.3224
        36        2.0000           -0.4438290             -12.0772
        37        2.0000           -0.4365262             -11.8785
        38        2.0000           -0.4282358             -11.6529
        39        2.0000           -0.4279888             -11.6462
        40        2.0000           -0.4253583             -11.5746
        41        2.0000           -0.4148982             -11.2900
        42        2.0000           -0.4117688             -11.2048
        43        2.0000           -0.4009482             -10.9104
        44        2.0000           -0.3835164             -10.4360 (HOMO)
        45                         -0.2496185              -6.7925 (LUMO)
        46                         -0.2485859              -6.7644
        47                         -0.2368397              -6.4447
        48                         -0.2313410              -6.2951
        49                         -0.1598875              -4.3508
        50                         -0.1464740              -3.9858
        51                         -0.1330997              -3.6218
        52                         -0.1225555              -3.3349
        53                         -0.1110486              -3.0218
        54                          0.0049681               0.1352
        55                          0.0062404               0.1698
       ...                                ...                  ...
        90                          0.6391617              17.3925
      -------------------------------------------------------------
                  HL-Gap            0.1338979 Eh            3.6435 eV
             Fermi-level           -0.3165674 Eh           -8.6142 eV

     #   Z          covCN         q      C6AA      α(0)
     1   6 C        2.950    -0.046    29.150     8.855
     2   6 C        2.891     0.097    25.849     8.336
     3   6 C        2.989    -0.054    29.333     8.884
     4   6 C        2.891     0.081    26.189     8.390
     5   6 C        2.902     0.146    24.822     8.169
     6   6 C        2.923    -0.052    29.298     8.876
     7   1 H        0.926     0.097     1.814     2.106
     8   1 H        0.926     0.084     1.939     2.178
     9   1 H        0.926     0.096     1.825     2.112
    10   8 O        1.708    -0.244    18.037     5.734
    11  17 Cl       0.965    -0.191   105.150    15.688
    12  17 Cl       0.965    -0.175   104.661    15.651
    13   6 C        2.869     0.115    25.472     8.273
    14   6 C        2.843     0.137    24.996     8.194
    15   6 C        2.922    -0.054    29.340     8.883
    16   6 C        2.955    -0.087    30.171     9.009
    17   6 C        2.950    -0.055    29.370     8.889
    18   1 H        0.926     0.088     1.899     2.155
    19   6 C        2.889     0.096    25.858     8.337
    20   1 H        0.926     0.085     1.926     2.170
    21   1 H        0.926     0.081     1.965     2.192
    22   8 O        1.659    -0.430    21.435     6.250
    23   1 H        0.804     0.390     0.502     1.113
    24  17 Cl       0.964    -0.206   105.650    15.725

 Mol. C6AA /au·bohr⁶  :      12396.500962
 Mol. C8AA /au·bohr⁸  :     368733.914134
 Mol. α(0) /au        :        176.170688


Wiberg/Mayer (AO) data.
largest (>0.10) Wiberg bond orders for each atom

 ---------------------------------------------------------------------------
     #   Z sym  total        # sym  WBO       # sym  WBO       # sym  WBO
 ---------------------------------------------------------------------------
     1   6 C    3.983 --     6 C    1.445     2 C    1.400     9 H    0.961
     2   6 C    3.909 --     1 C    1.400     3 C    1.397    11 Cl   0.962
     3   6 C    3.982 --     4 C    1.421     2 C    1.397     7 H    0.960
                             6 C    0.101
     4   6 C    3.911 --     3 C    1.421     5 C    1.326    12 Cl   0.971
     5   6 C    3.939 --     6 C    1.366     4 C    1.326    10 O    1.052
     6   6 C    3.984 --     1 C    1.445     5 C    1.366     8 H    0.960
                             3 C    0.101
     7   1 H    0.990 --     3 C    0.960
     8   1 H    0.993 --     6 C    0.960
     9   1 H    0.990 --     1 C    0.961
    10   8 O    2.297 --     5 C    1.052    13 C    1.000
    11  17 Cl   1.086 --     2 C    0.962
    12  17 Cl   1.104 --     4 C    0.971
    13   6 C    3.924 --    15 C    1.405    14 C    1.296    10 O    1.000
    14   6 C    3.950 --    16 C    1.378    13 C    1.296    22 O    1.102
    15   6 C    3.982 --    17 C    1.427    13 C    1.405    18 H    0.962
    16   6 C    3.978 --    19 C    1.403    14 C    1.378    20 H    0.959
    17   6 C    3.984 --    15 C    1.427    19 C    1.408    21 H    0.964
    18   1 H    0.992 --    15 C    0.962
    19   6 C    3.904 --    17 C    1.408    16 C    1.403    24 Cl   0.955
    20   1 H    0.993 --    16 C    0.959
    21   1 H    0.993 --    17 C    0.964
    22   8 O    2.109 --    14 C    1.102    23 H    0.826
    23   1 H    0.847 --    22 O    0.826
    24  17 Cl   1.079 --    19 C    0.955
 ---------------------------------------------------------------------------

Topologies differ in total number of bonds
Writing topology from bond orders to xtbtopo.mol

molecular dipole:
                 x           y           z       tot (Debye)
 q only:        0.559      -0.853      -0.263
   full:        0.811      -0.850      -0.415       3.168
molecular quadrupole (traceless):
                xx          xy          yy          xz          yz          zz
 q only:      -20.711       1.446       1.922      -1.430       1.514      18.789
  q+dip:      -15.448      -0.725      -0.384      -1.740       3.139      15.832
   full:      -16.098       0.398       0.067      -2.622       2.208      16.031

           -------------------------------------------------
          |                Geometry Summary                 |
           -------------------------------------------------

      molecular mass/u    :      289.5420386
   center of mass at/Å    :       -0.0098547       0.0229272      -0.0316612
  moments of inertia/u·Å² :        0.7004497E+03   0.3276911E+04   0.3718413E+04
rotational constants/cm⁻¹ :        0.2406687E-01   0.5144366E-02   0.4533556E-02

 * 25 selected distances

     #   Z          #   Z                                           value/Å
     1   6 C        2   6 C                                       1.3842719
     2   6 C        3   6 C                                       1.3856936
     3   6 C        4   6 C                                       1.3820182
     4   6 C        5   6 C                                       1.3975789
     1   6 C        6   6 C                                       1.3820985
     5   6 C        6   6 C                                       1.3914029
     3   6 C        7   1 H                                       1.0770303
     6   6 C        8   1 H                                       1.0785657
     1   6 C        9   1 H                                       1.0770989
     5   6 C       10   8 O                                       1.3603656
     2   6 C       11  17 Cl                                      1.7339987
     4   6 C       12  17 Cl                                      1.7305342
    10   8 O       13   6 C                                       1.3796992
    13   6 C       14   6 C                                       1.4054681
    13   6 C       15   6 C                                       1.3854407
    14   6 C       16   6 C                                       1.3895225
    15   6 C       17   6 C                                       1.3839771
    15   6 C       18   1 H                                       1.0774183
    16   6 C       19   6 C                                       1.3844998
    17   6 C       19   6 C                                       1.3826839
    16   6 C       20   1 H                                       1.0783972
    17   6 C       21   1 H                                       1.0764533
    14   6 C       22   8 O                                       1.3512706
    22   8 O       23   1 H                                       0.9703175 (min)
    19   6 C       24  17 Cl                                      1.7381786 (max)

 * 5 distinct bonds (by element types)

   Z      Z             #   av. dist./Å        max./Å        min./Å
   1 H    6 C           6     1.0774940     1.0785657     1.0764533
   6 C    6 C          12     1.3878880     1.4054681     1.3820182
   1 H    8 O           1     0.9703175     0.9703175     0.9703175
   6 C    8 O           3     1.3637784     1.3796992     1.3512706
   6 C   17 Cl          3     1.7342371     1.7381786     1.7305342

           -------------------------------------------------
          |               Frequency Printout                |
           -------------------------------------------------
 projected vibrational frequencies (cm⁻¹)
eigval :       -0.00    -0.00     0.00     0.00     0.00     0.00
eigval :       25.74    31.72    44.33   102.31   122.73   143.39
eigval :      165.90   201.84   208.84   225.67   256.31   303.78
eigval :      344.86   361.43   364.24   383.26   416.05   420.97
eigval :      445.84   455.40   501.22   528.46   549.46   558.85
eigval :      627.05   636.95   655.90   674.90   731.68   788.49
eigval :      820.57   826.42   849.58   855.92   866.17   882.22
eigval :      900.57   902.08  1020.70  1070.76  1097.46  1099.45
eigval :     1120.00  1147.18  1172.72  1214.61  1230.91  1242.20
eigval :     1277.43  1312.98  1327.93  1386.44  1406.56  1432.27
eigval :     1467.75  1554.64  1563.05  1568.88  1581.60  3105.19
eigval :     3105.46  3118.12  3123.02  3124.50  3129.06  3434.56
 reduced masses (amu)
   1: 24.08   2: 23.12   3: 23.92   4: 25.70   5: 22.51   6: 23.94   7: 22.31   8: 22.62
   9: 21.77  10: 20.18  11: 17.04  12: 28.45  13: 15.56  14: 14.98  15: 23.50  16: 20.28
  17: 17.03  18: 15.64  19: 12.89  20: 19.75  21: 25.49  22: 16.66  23:  6.48  24:  9.08
  25: 11.31  26: 12.48  27: 13.72  28: 11.11  29: 12.91  30: 11.26  31: 13.27  32: 12.87
  33: 11.97  34: 12.60  35: 14.54  36: 11.97  37:  4.08  38:  5.03  39:  3.41  40: 12.40
  41:  3.26  42: 12.60  43:  3.41  44:  3.46  45: 11.01  46:  6.40  47:  5.35  48:  6.33
  49:  5.49  50:  3.10  51:  7.05  52:  3.70  53:  3.64  54: 10.40  55: 11.13  56: 11.69
  57: 11.37  58: 10.76  59: 10.62  60:  9.74  61: 10.42  62: 11.74  63: 11.65  64: 11.70
  65: 11.74  66:  1.82  67:  1.83  68:  1.80  69:  1.87  70:  1.86  71:  1.89  72:  1.87
 IR intensities (km·mol⁻¹)
   1:  0.13   2:  0.55   3:  0.08   4:  0.29   5:  0.33   6:  0.09   7:  1.41   8:  0.66
   9:  0.13  10:  2.19  11:  0.27  12:  0.30  13:  0.47  14:  2.30  15:  1.45  16:  6.68
  17:  0.84  18:  4.25  19:  3.43  20:  0.28  21:  0.55  22:  2.34  23:105.00  24: 37.75
  25: 44.48  26: 22.02  27: 16.78  28:  3.24  29:  8.36  30:  4.60  31: 18.58  32: 12.44
  33:  4.85  34:  9.36  35: 65.99  36: 25.91  37: 61.72  38: 29.99  39:  0.82  40: 50.03
  41:  1.53  42: 71.12  43:  1.31  44:  0.11  45:118.56  46:279.00  47: 33.19  48:115.67
  49:229.34  50:  0.19  51:166.81  52:  7.52  53: 34.92  54:159.90  55:458.67  56: 28.33
  57: 25.95  58: 17.19  59: 43.54  60:439.23  61:470.62  62: 25.08  63:  7.18  64: 21.53
  65: 74.69  66: 13.69  67:  5.56  68:  9.41  69:  2.25  70:  0.68  71:  5.75  72:189.50
 Raman intensities (amu)
   1:  0.00   2:  0.00   3:  0.00   4:  0.00   5:  0.00   6:  0.00   7:  0.00   8:  0.00
   9:  0.00  10:  0.00  11:  0.00  12:  0.00  13:  0.00  14:  0.00  15:  0.00  16:  0.00
  17:  0.00  18:  0.00  19:  0.00  20:  0.00  21:  0.00  22:  0.00  23:  0.00  24:  0.00
  25:  0.00  26:  0.00  27:  0.00  28:  0.00  29:  0.00  30:  0.00  31:  0.00  32:  0.00
  33:  0.00  34:  0.00  35:  0.00  36:  0.00  37:  0.00  38:  0.00  39:  0.00  40:  0.00
  41:  0.00  42:  0.00  43:  0.00  44:  0.00  45:  0.00  46:  0.00  47:  0.00  48:  0.00
  49:  0.00  50:  0.00  51:  0.00  52:  0.00  53:  0.00  54:  0.00  55:  0.00  56:  0.00
  57:  0.00  58:  0.00  59:  0.00  60:  0.00  61:  0.00  62:  0.00  63:  0.00  64:  0.00
  65:  0.00  66:  0.00  67:  0.00  68:  0.00  69:  0.00  70:  0.00  71:  0.00  72:  0.00
 output can be read by thermo (or use thermo option).
 writing <g98.out> molden fake output.
 recommended (thermochemical) frequency scaling factor: 1.0
           -------------------------------------------------
          |             Thermodynamic Functions             |
           -------------------------------------------------

Molecule has no symmetry elements
It seems to be the C1 point group
c1  symmetry found (for desy threshold:  0.10E+00) used in thermo

          ...................................................
          :                      SETUP                      :
          :.................................................:
          :  # frequencies                          66      :
          :  # imaginary freq.                       0      :
          :  linear?                             false      :
          :  only rotor calc.                    false      :
          :  symmetry                               c1      :
          :  rotational number                       1      :
          :  scaling factor                  1.0000000      :
          :  rotor cutoff                   50.0000000 cm⁻¹ :
          :  imag. cutoff                  -20.0000000 cm⁻¹ :
          :.................................................:

    mode    ω/cm⁻¹     T·S(HO)/kcal·mol⁻¹    T·S(FR)/kcal·mol⁻¹   T·S(vib)
   ------------------------------------------------------------------------
       1     25.74    -1.82873 (  6.56%)    -1.25321 ( 93.44%)    -1.29096
       2     31.72    -1.70514 ( 13.93%)    -1.19134 ( 86.07%)    -1.26293
       3     44.33    -1.50730 ( 38.19%)    -1.09216 ( 61.81%)    -1.25071
       4    102.31    -1.01664 ( 94.60%)    -0.84443 (  5.40%)    -1.00735
       5    122.73    -0.91140 ( 97.32%)    -0.79051 (  2.68%)    -0.90816
       6    143.39    -0.82235 ( 98.54%)    -0.74444 (  1.46%)    -0.82121
       7    165.90    -0.73982 ( 99.18%)    -0.70123 (  0.82%)    -0.73951
       8    201.84    -0.63097 ( 99.62%)    -0.64315 (  0.38%)    -0.63102
       9    208.84    -0.61234 ( 99.67%)    -0.63305 (  0.33%)    -0.61241
      10    225.67    -0.57040 ( 99.76%)    -0.61009 (  0.24%)    -0.57049
      11    256.31    -0.50292 ( 99.86%)    -0.57238 (  0.14%)    -0.50302
   ------------------------------------------------------------------------

   temp. (K)  partition function   enthalpy   heat capacity  entropy
                                   cal/mol     cal/K/mol   cal/K/mol   J/K/mol
 298.15  VIB  0.344E+06             7929.666     52.142     47.739
         ROT  0.706E+07              888.752      2.981     34.319
         INT  0.243E+13             8818.418     55.123     82.058
         TR   0.477E+28             1481.254      4.968     42.868
         TOT                       10299.6720    60.0909   124.9258   522.6896

       T/K    H(0)-H(T)+PV         H(T)/Eh          T*S/Eh         G(T)/Eh
   ------------------------------------------------------------------------
    298.15    0.164136E-01    0.170455E+00    0.593563E-01    0.111099E+00
   ------------------------------------------------------------------------

         :::::::::::::::::::::::::::::::::::::::::::::::::::::
         ::                  THERMODYNAMIC                  ::
         :::::::::::::::::::::::::::::::::::::::::::::::::::::
         :: total free energy         -50.959129691802 Eh   ::
         ::.................................................::
         :: total energy              -51.070228707740 Eh   ::
         :: zero point energy           0.154041723612 Eh   ::
         :: G(RRHO) w/o ZPVE           -0.042942707673 Eh   ::
         :: G(RRHO) contrib.            0.111099015938 Eh   ::
         :::::::::::::::::::::::::::::::::::::::::::::::::::::

optimized geometry written to: xtbopt.xyz


           -------------------------------------------------
          | TOTAL ENERGY              -51.070228707740 Eh   |
          | TOTAL ENTHALPY            -50.899773411995 Eh   |
          | TOTAL FREE ENERGY         -50.959129691802 Eh   |
          | GRADIENT NORM               0.000315498790 Eh/α |
          | HOMO-LUMO GAP               3.643546948590 eV   |
           -------------------------------------------------

------------------------------------------------------------------------
 * finished run on 2021/11/15 at 09:36:16.201     
------------------------------------------------------------------------
 total:
 * wall-time:     0 d,  0 h,  0 min,  3.927 sec
 *  cpu-time:     0 d,  0 h,  0 min,  3.828 sec
 * ratio c/w:     0.975 speedup
 SCF:
 * wall-time:     0 d,  0 h,  0 min,  0.035 sec
 *  cpu-time:     0 d,  0 h,  0 min,  0.031 sec
 * ratio c/w:     0.906 speedup
 ANC optimizer:
 * wall-time:     0 d,  0 h,  0 min,  0.586 sec
 *  cpu-time:     0 d,  0 h,  0 min,  0.578 sec
 * ratio c/w:     0.986 speedup
 analytical hessian:
 * wall-time:     0 d,  0 h,  0 min,  3.259 sec
 *  cpu-time:     0 d,  0 h,  0 min,  3.219 sec
 * ratio c/w:     0.988 speedup

