 Entering Gaussian System
 *********************************************
 Gaussian 98:
 frequency output generated by the xtb code
 *********************************************
                         Standard orientation:
 --------------------------------------------------------------------
  Center     Atomic     Atomic              Coordinates (Angstroms)
  Number     Number      Type              X           Y           Z
 --------------------------------------------------------------------
    1          6             0       -2.190908   -1.719464    0.107017
    2          6             0       -3.358047   -1.021527   -0.151592
    3          6             0       -3.382626    0.363862   -0.136106
    4          6             0       -2.211565    1.047411    0.131010
    5          6             0       -1.017387    0.368504    0.388401
    6          6             0       -1.029249   -1.022832    0.381696
    7          1             0       -4.292268    0.905953   -0.332788
    8          1             0       -0.118702   -1.558209    0.599824
    9          1             0       -2.189025   -2.796539    0.100030
   10          8             0        0.077506    1.115834    0.693857
   11         17             0       -4.821956   -1.885472   -0.494112
   12         17             0       -2.209540    2.777777    0.155099
   13          6             0        1.338016    0.603590    0.465188
   14          6             0        1.685532    0.010960   -0.760930
   15          6             0        2.297318    0.777879    1.449468
   16          6             0        2.995052   -0.412753   -0.951710
   17          6             0        3.602996    0.363749    1.251745
   18          1             0        2.002987    1.250735    2.371751
   19          6             0        3.934235   -0.233843    0.049672
   20          1             0        3.285302   -0.869882   -1.884303
   21          1             0        4.344614    0.501542    2.019709
   22          8             0        0.734016   -0.122303   -1.711082
   23          1             0        1.098132   -0.521920   -2.516837
   24         17             0        5.565044   -0.769374   -0.224063
 --------------------------------------------------------------------
     1 basis functions        1 primitive gaussians
     1 alpha electrons        1 beta electrons
 
 Harmonic frequencies (cm**-1), IR intensities (km*mol⁻¹),
 Raman scattering activities (A**4/amu), Raman depolarization ratios,
 reduced masses (AMU), force constants (mDyne/A) and normal coordinates:
                      1                      2                      3
                        a                      a                      a 
 Frequencies --    25.7364                31.7160                44.3304
 Red. masses --    22.3074                22.6234                21.7749
 Frc consts  --     0.0000                 0.0000                 0.0000
 IR Inten    --     1.4082                 0.6558                 0.1255
 Raman Activ --     0.0000                 0.0000                 0.0000
 Depolar     --     0.0000                 0.0000                 0.0000
 Atom AN      X      Y      Z        X      Y      Z        X      Y      Z
   1   6     0.09   0.02  -0.14    -0.12  -0.02  -0.16    -0.10  -0.05   0.01
   2   6     0.02  -0.02   0.04    -0.12   0.04  -0.02    -0.08  -0.01   0.04
   3   6    -0.04  -0.02   0.11    -0.07   0.04   0.07    -0.01  -0.00  -0.04
   4   6    -0.05   0.02   0.01    -0.02  -0.02   0.02     0.02  -0.05  -0.08
   5   6     0.02   0.07  -0.17    -0.02  -0.08  -0.12    -0.01  -0.09  -0.03
   6   6     0.09   0.07  -0.24    -0.07  -0.08  -0.21    -0.06  -0.09  -0.04
   7   1    -0.03  -0.02   0.07    -0.02   0.03   0.05     0.00   0.01  -0.01
   8   1     0.04   0.03  -0.11    -0.02  -0.04  -0.09    -0.02  -0.03  -0.02
   9   1     0.04   0.01  -0.06    -0.05  -0.00  -0.07    -0.04  -0.01   0.01
  10   8     0.01   0.13  -0.29     0.00  -0.13  -0.17    -0.01  -0.14   0.05
  11  17     0.04  -0.14   0.31    -0.33   0.21   0.10    -0.25   0.08   0.31
  12  17    -0.24   0.03   0.20     0.07  -0.04   0.27     0.20  -0.08  -0.35
  13   6     0.01   0.09  -0.16     0.01  -0.10  -0.09    -0.01  -0.12   0.06
  14   6     0.09   0.12  -0.15     0.07  -0.19  -0.03     0.06   0.11  -0.03
  15   6    -0.07  -0.01  -0.06    -0.01   0.06  -0.10    -0.07  -0.32   0.16
  16   6     0.08   0.05  -0.05     0.11  -0.11   0.03     0.08   0.18  -0.05
  17   6    -0.07  -0.08   0.04     0.02   0.15  -0.04    -0.05  -0.26   0.14
  18   1    -0.03  -0.01  -0.02    -0.02   0.04  -0.04    -0.04  -0.15   0.07
  19   6    -0.00  -0.06   0.04     0.09   0.06   0.02     0.03   0.01   0.03
  20   1     0.04   0.02  -0.01     0.05  -0.05   0.02     0.04   0.11  -0.04
  21   1    -0.04  -0.05   0.03     0.00   0.08  -0.01    -0.03  -0.12   0.06
  22   8     0.18   0.25  -0.27     0.13  -0.40  -0.05     0.11   0.31  -0.10
  23   1     0.06   0.06  -0.06     0.05  -0.11   0.00     0.04   0.12  -0.04
  24  17    -0.03  -0.30   0.32     0.25   0.34   0.16     0.12   0.28  -0.03
                      4                      5                      6
                        a                      a                      a 
 Frequencies --   102.3089               122.7343               143.3872
 Red. masses --    20.1818                17.0425                28.4455
 Frc consts  --     0.0000                 0.0000                 0.0000
 IR Inten    --     2.1948                 0.2660                 0.2957
 Raman Activ --     0.0000                 0.0000                 0.0000
 Depolar     --     0.0000                 0.0000                 0.0000
 Atom AN      X      Y      Z        X      Y      Z        X      Y      Z
   1   6    -0.02  -0.09  -0.19     0.15   0.05  -0.42     0.05   0.03  -0.03
   2   6    -0.03  -0.05  -0.08     0.09   0.03  -0.20     0.05   0.04  -0.00
   3   6     0.02  -0.05  -0.04     0.05   0.03  -0.14    -0.01   0.05   0.01
   4   6     0.05  -0.11  -0.03     0.03   0.06  -0.12     0.00   0.03  -0.01
   5   6     0.02  -0.15  -0.01     0.04   0.08  -0.10    -0.01   0.00  -0.05
   6   6     0.01  -0.15  -0.15     0.11   0.08  -0.34     0.06   0.01  -0.04
   7   1     0.01  -0.00  -0.00     0.01   0.00  -0.01    -0.01   0.01   0.01
   8   1    -0.00  -0.06  -0.06     0.04   0.02  -0.11     0.02   0.01  -0.02
   9   1    -0.01  -0.03  -0.08     0.06   0.02  -0.16     0.01   0.01  -0.01
  10   8    -0.06  -0.14   0.21     0.01   0.02   0.18    -0.08   0.10  -0.17
  11  17    -0.19   0.04   0.13     0.07  -0.06   0.34     0.24  -0.20   0.05
  12  17     0.36  -0.21  -0.03    -0.16   0.12  -0.07     0.67   0.04   0.15
  13   6     0.01   0.12   0.05    -0.00  -0.02   0.16    -0.11   0.01  -0.09
  14   6    -0.02   0.16   0.03    -0.06  -0.08   0.18    -0.14  -0.05  -0.06
  15   6     0.07   0.31  -0.05     0.03  -0.05   0.14    -0.19  -0.05  -0.01
  16   6    -0.03   0.15   0.00    -0.09  -0.11   0.13    -0.14  -0.07  -0.01
  17   6     0.08   0.34  -0.10     0.02  -0.07   0.08    -0.20  -0.09   0.04
  18   1     0.03   0.11  -0.02     0.02  -0.01   0.04    -0.07  -0.01  -0.01
  19   6    -0.00   0.16  -0.03    -0.03  -0.07   0.07    -0.18  -0.04   0.03
  20   1    -0.02   0.02   0.01    -0.04  -0.04   0.04    -0.03  -0.02   0.00
  21   1     0.04   0.13  -0.05     0.02  -0.02   0.01    -0.06  -0.04   0.02
  22   8    -0.05   0.21   0.06    -0.11  -0.12   0.25    -0.15  -0.08  -0.07
  23   1    -0.02   0.06   0.01    -0.03  -0.03   0.06    -0.04  -0.03  -0.01
  24  17    -0.17  -0.29   0.10    -0.05   0.06  -0.21    -0.25   0.22   0.09
                      7                      8                      9
                        a                      a                      a 
 Frequencies --   165.9042               201.8363               208.8369
 Red. masses --    15.5628                14.9822                23.5045
 Frc consts  --     0.0000                 0.0000                 0.0000
 IR Inten    --     0.4728                 2.2993                 1.4469
 Raman Activ --     0.0000                 0.0000                 0.0000
 Depolar     --     0.0000                 0.0000                 0.0000
 Atom AN      X      Y      Z        X      Y      Z        X      Y      Z
   1   6     0.06   0.00  -0.22    -0.04   0.06  -0.06    -0.23   0.14  -0.00
   2   6    -0.04  -0.00   0.23    -0.04   0.07  -0.03    -0.24   0.12  -0.01
   3   6    -0.13  -0.01   0.62    -0.05   0.07  -0.00    -0.19   0.14  -0.02
   4   6    -0.07  -0.00   0.35    -0.04   0.07   0.02    -0.12   0.10  -0.01
   5   6    -0.01   0.00   0.11    -0.06   0.04   0.04    -0.12   0.07  -0.02
   6   6     0.05   0.00  -0.16    -0.05   0.04  -0.01    -0.20   0.07  -0.02
   7   1    -0.05  -0.00   0.25    -0.01   0.02  -0.00    -0.05   0.06  -0.00
   8   1     0.03  -0.00  -0.12    -0.02   0.01  -0.00    -0.07   0.01  -0.01
   9   1     0.04   0.00  -0.18    -0.01   0.02  -0.03    -0.08   0.04   0.00
  10   8     0.00   0.01   0.02    -0.02  -0.07   0.13    -0.04  -0.05   0.05
  11  17     0.06   0.02  -0.21     0.08  -0.17   0.04    -0.03  -0.57  -0.04
  12  17     0.04   0.01  -0.39     0.03   0.16  -0.01     0.17   0.24   0.04
  13   6    -0.00   0.00   0.02    -0.02  -0.02  -0.02    -0.00  -0.05   0.08
  14   6    -0.01  -0.01   0.02     0.02   0.10  -0.07     0.07  -0.03   0.09
  15   6     0.00   0.00   0.01    -0.02  -0.12   0.01     0.06   0.04   0.02
  16   6    -0.01  -0.03   0.02     0.14   0.52  -0.23     0.05  -0.11   0.13
  17   6     0.00  -0.00   0.01    -0.01  -0.07   0.01     0.10   0.11  -0.00
  18   1     0.00   0.00   0.00    -0.02  -0.09   0.03     0.03   0.03   0.00
  19   6    -0.01  -0.02   0.01     0.09   0.27  -0.14     0.11  -0.04   0.07
  20   1    -0.01  -0.01   0.01     0.06   0.21  -0.09     0.01  -0.05   0.04
  21   1     0.00   0.00   0.00    -0.03  -0.09   0.04     0.03   0.08  -0.01
  22   8    -0.01  -0.02   0.03    -0.07  -0.48   0.10     0.20   0.17  -0.03
  23   1    -0.00  -0.00   0.01     0.00  -0.08   0.01     0.06   0.04  -0.00
  24  17    -0.01   0.01  -0.02    -0.01  -0.21   0.11     0.18  -0.10  -0.19
                     10                     11                     12
                        a                      a                      a 
 Frequencies --   225.6711               256.3074               303.7770
 Red. masses --    20.2812                17.0336                15.6363
 Frc consts  --     0.0000                 0.0000                 0.0000
 IR Inten    --     6.6786                 0.8372                 4.2454
 Raman Activ --     0.0000                 0.0000                 0.0000
 Depolar     --     0.0000                 0.0000                 0.0000
 Atom AN      X      Y      Z        X      Y      Z        X      Y      Z
   1   6    -0.00   0.03  -0.09     0.06  -0.03  -0.07    -0.08  -0.05   0.21
   2   6     0.01   0.06  -0.07     0.10   0.03  -0.06    -0.01   0.07   0.25
   3   6     0.02   0.06  -0.03     0.06   0.03  -0.04     0.02   0.06   0.08
   4   6     0.01   0.06   0.05     0.01   0.05   0.08     0.08   0.05  -0.16
   5   6    -0.03   0.01   0.13    -0.06  -0.03   0.19     0.05  -0.08  -0.33
   6   6    -0.04   0.01   0.03     0.01  -0.03   0.09     0.02  -0.09  -0.22
   7   1     0.01   0.02  -0.02     0.01  -0.00  -0.03     0.00   0.02   0.04
   8   1    -0.01   0.00   0.01     0.01   0.01   0.04     0.01  -0.02  -0.09
   9   1    -0.00   0.01  -0.05     0.01  -0.01  -0.05    -0.06  -0.01   0.12
  10   8     0.04  -0.17   0.29    -0.04  -0.20   0.35     0.06  -0.27  -0.16
  11  17     0.10  -0.07   0.08     0.19   0.11   0.10     0.27   0.07  -0.05
  12  17    -0.07   0.14  -0.04    -0.07   0.12  -0.04    -0.10   0.14   0.02
  13   6    -0.02  -0.15  -0.03    -0.10  -0.17  -0.05     0.03  -0.31   0.11
  14   6    -0.10  -0.08  -0.10    -0.04  -0.08  -0.08     0.02  -0.14   0.04
  15   6     0.07  -0.09  -0.14    -0.12  -0.05  -0.04    -0.04  -0.15   0.13
  16   6    -0.11  -0.17  -0.21    -0.00  -0.04   0.11     0.03  -0.00  -0.02
  17   6     0.04  -0.01  -0.30    -0.05   0.18   0.04     0.05   0.25  -0.03
  18   1     0.04  -0.02  -0.04    -0.08  -0.02  -0.02    -0.03  -0.06   0.04
  19   6    -0.04  -0.11  -0.27    -0.04   0.08   0.10    -0.01   0.21  -0.03
  20   1    -0.06  -0.06  -0.07     0.03  -0.02   0.05     0.03   0.01  -0.00
  21   1     0.04   0.02  -0.12    -0.02   0.11   0.01     0.04   0.13  -0.04
  22   8    -0.24   0.19  -0.05     0.35  -0.11  -0.50    -0.09   0.12   0.13
  23   1    -0.10   0.06  -0.04     0.19  -0.03  -0.08    -0.05   0.12  -0.02
  24  17     0.23   0.13   0.47    -0.25   0.00  -0.10    -0.23  -0.03   0.03
                     13                     14                     15
                        a                      a                      a 
 Frequencies --   344.8638               361.4288               364.2378
 Red. masses --    12.8941                19.7533                25.4860
 Frc consts  --     0.0000                 0.0000                 0.0000
 IR Inten    --     3.4336                 0.2802                 0.5476
 Raman Activ --     0.0000                 0.0000                 0.0000
 Depolar     --     0.0000                 0.0000                 0.0000
 Atom AN      X      Y      Z        X      Y      Z        X      Y      Z
   1   6     0.13  -0.04  -0.22    -0.12   0.18  -0.14    -0.17   0.14  -0.08
   2   6     0.12  -0.08  -0.28    -0.11   0.19  -0.19    -0.05   0.30  -0.08
   3   6    -0.03  -0.08  -0.00     0.08   0.17   0.02    -0.17   0.24  -0.03
   4   6    -0.12   0.00   0.13     0.19  -0.04   0.14    -0.05  -0.07   0.02
   5   6    -0.11   0.04   0.17     0.20  -0.03   0.15    -0.09  -0.13   0.02
   6   6    -0.04   0.05   0.31    -0.05  -0.03   0.17    -0.09  -0.11   0.06
   7   1    -0.03  -0.05   0.01     0.06   0.12   0.02    -0.03   0.10  -0.00
   8   1    -0.01   0.04   0.14    -0.05  -0.07   0.06    -0.04  -0.06   0.02
   9   1     0.07  -0.01  -0.11    -0.06   0.05  -0.07    -0.12   0.04  -0.05
  10   8    -0.03   0.13  -0.40     0.31  -0.02  -0.15    -0.15  -0.04  -0.10
  11  17    -0.06   0.06   0.09    -0.09  -0.19   0.03     0.52   0.20   0.14
  12  17     0.07   0.03  -0.01    -0.12  -0.16  -0.04    -0.09  -0.43  -0.03
  13   6    -0.08  -0.23   0.07     0.25  -0.07  -0.05    -0.09   0.04  -0.01
  14   6     0.02  -0.12   0.06     0.11  -0.06  -0.08    -0.01   0.02   0.02
  15   6    -0.13  -0.24   0.11     0.14   0.04   0.03    -0.07   0.08  -0.05
  16   6     0.05  -0.03   0.02     0.08  -0.03  -0.10     0.01   0.04   0.04
  17   6     0.02   0.25  -0.08     0.09  -0.03   0.08    -0.07  -0.03   0.02
  18   1    -0.05  -0.11   0.05     0.01   0.03  -0.01    -0.01   0.04  -0.02
  19   6     0.10   0.24  -0.06    -0.09   0.01   0.03     0.03  -0.05   0.05
  20   1     0.02  -0.01   0.01     0.07  -0.00  -0.02    -0.00   0.02   0.00
  21   1     0.01   0.14  -0.04     0.05  -0.03   0.00    -0.04  -0.01   0.02
  22   8    -0.04   0.12   0.12     0.00   0.02   0.03    -0.04   0.03   0.06
  23   1    -0.04   0.09  -0.01    -0.04   0.00  -0.01    -0.02   0.02   0.01
  24  17     0.08  -0.13  -0.03    -0.47   0.16   0.07     0.21  -0.07  -0.07
                     16                     17                     18
                        a                      a                      a 
 Frequencies --   383.2631               416.0539               420.9655
 Red. masses --    16.6633                 6.4801                 9.0776
 Frc consts  --     0.0000                 0.0000                 0.0000
 IR Inten    --     2.3407               104.9980                37.7471
 Raman Activ --     0.0000                 0.0000                 0.0000
 Depolar     --     0.0000                 0.0000                 0.0000
 Atom AN      X      Y      Z        X      Y      Z        X      Y      Z
   1   6     0.01   0.25   0.10     0.01   0.05   0.13     0.09   0.08  -0.11
   2   6    -0.11   0.08   0.13    -0.01  -0.01   0.08     0.01  -0.01  -0.04
   3   6    -0.06   0.06  -0.06     0.04  -0.00  -0.25    -0.12  -0.02   0.27
   4   6    -0.00  -0.06  -0.03    -0.09  -0.01   0.33     0.03   0.00  -0.44
   5   6     0.10   0.18   0.01    -0.04   0.05   0.21     0.03   0.11  -0.24
   6   6     0.11   0.20  -0.16     0.09   0.06  -0.23    -0.03   0.13   0.25
   7   1     0.01   0.05  -0.04     0.04   0.00  -0.21    -0.07  -0.02   0.23
   8   1     0.03   0.04  -0.09     0.05   0.01  -0.20    -0.03   0.05   0.22
   9   1     0.02   0.07   0.05     0.02   0.01   0.04     0.05   0.02  -0.03
  10   8     0.05   0.27   0.16     0.02   0.08  -0.08    -0.00   0.03   0.12
  11  17    -0.09  -0.03  -0.06    -0.04  -0.00  -0.01    -0.04   0.02  -0.02
  12  17     0.03  -0.45   0.00     0.02  -0.06  -0.04     0.03  -0.15   0.06
  13   6    -0.02   0.05   0.05    -0.05  -0.17   0.07    -0.04  -0.11   0.12
  14   6    -0.07   0.05   0.03    -0.04  -0.17   0.07    -0.06  -0.11   0.10
  15   6    -0.02  -0.34   0.14     0.02   0.13  -0.06     0.08   0.10  -0.03
  16   6    -0.11  -0.11   0.04     0.03   0.10  -0.05    -0.03   0.09  -0.06
  17   6     0.08   0.15  -0.14    -0.02  -0.04   0.01     0.02  -0.06  -0.05
  18   1    -0.01  -0.20   0.09     0.03   0.13  -0.06     0.06   0.10  -0.03
  19   6     0.04   0.20  -0.17    -0.02  -0.10   0.04    -0.04  -0.10  -0.03
  20   1    -0.07  -0.11   0.04     0.03   0.11  -0.05    -0.01   0.10  -0.05
  21   1     0.04   0.06  -0.06     0.00   0.02  -0.01     0.03  -0.00  -0.03
  22   8     0.09  -0.08  -0.13    -0.02  -0.11   0.04     0.08  -0.11  -0.05
  23   1     0.07  -0.06   0.01     0.15   0.58  -0.22     0.18   0.40  -0.15
  24  17    -0.02  -0.03   0.08     0.00   0.00  -0.01    -0.04   0.04   0.04
                     19                     20                     21
                        a                      a                      a 
 Frequencies --   445.8357               455.3986               501.2197
 Red. masses --    11.3125                12.4795                13.7224
 Frc consts  --     0.0000                 0.0000                 0.0000
 IR Inten    --    44.4796                22.0227                16.7818
 Raman Activ --     0.0000                 0.0000                 0.0000
 Depolar     --     0.0000                 0.0000                 0.0000
 Atom AN      X      Y      Z        X      Y      Z        X      Y      Z
   1   6    -0.03   0.01  -0.03    -0.09  -0.15  -0.02     0.07   0.01   0.04
   2   6    -0.02   0.05  -0.01     0.01  -0.01  -0.06     0.03  -0.11  -0.03
   3   6     0.12   0.05   0.08    -0.02  -0.00  -0.01    -0.25  -0.11  -0.07
   4   6     0.19  -0.01  -0.06    -0.04  -0.01   0.06    -0.33   0.03  -0.00
   5   6     0.13  -0.07  -0.01    -0.07  -0.15  -0.00    -0.20   0.19  -0.05
   6   6     0.01  -0.09   0.07    -0.09  -0.18   0.03    -0.08   0.24  -0.02
   7   1     0.04   0.05   0.06    -0.01  -0.01  -0.01    -0.11  -0.09  -0.03
   8   1    -0.01  -0.05   0.03    -0.02  -0.05  -0.00     0.01   0.13   0.00
   9   1    -0.03   0.00  -0.02    -0.06  -0.04  -0.01     0.07   0.00   0.03
  10   8     0.07  -0.03   0.09    -0.14   0.01  -0.10     0.06  -0.21   0.16
  11  17    -0.08  -0.09  -0.02     0.12   0.05   0.04     0.10   0.13   0.03
  12  17    -0.05   0.08   0.00    -0.02   0.17  -0.01     0.09  -0.14   0.01
  13   6     0.04   0.20  -0.24     0.06   0.33   0.05     0.16   0.01  -0.19
  14   6    -0.05   0.15  -0.23     0.15   0.29   0.10     0.26   0.13  -0.23
  15   6    -0.14  -0.13  -0.02     0.07  -0.10   0.14     0.07  -0.06  -0.09
  16   6    -0.04  -0.10   0.20    -0.07  -0.20  -0.06     0.21  -0.15  -0.02
  17   6    -0.03   0.13   0.16     0.04  -0.05  -0.21     0.11   0.03   0.08
  18   1    -0.13  -0.12   0.01     0.07  -0.13   0.11    -0.04  -0.06  -0.02
  19   6     0.04   0.12   0.17    -0.01  -0.02  -0.23     0.05  -0.06   0.12
  20   1     0.01  -0.14   0.12    -0.11  -0.16   0.01     0.10  -0.11   0.04
  21   1    -0.05   0.04   0.09     0.04  -0.07  -0.08     0.02   0.00   0.04
  22   8    -0.34  -0.13  -0.02     0.28  -0.20   0.14    -0.10  -0.01   0.18
  23   1    -0.02   0.42  -0.20     0.22   0.28  -0.06    -0.12   0.08  -0.04
  24  17     0.22  -0.09  -0.08    -0.19   0.08   0.07    -0.20   0.07  -0.01
                     22                     23                     24
                        a                      a                      a 
 Frequencies --   528.4614               549.4575               558.8507
 Red. masses --    11.1085                12.9113                11.2597
 Frc consts  --     0.0000                 0.0000                 0.0000
 IR Inten    --     3.2373                 8.3573                 4.5991
 Raman Activ --     0.0000                 0.0000                 0.0000
 Depolar     --     0.0000                 0.0000                 0.0000
 Atom AN      X      Y      Z        X      Y      Z        X      Y      Z
   1   6    -0.06   0.01   0.29     0.08   0.14   0.10    -0.02  -0.02   0.01
   2   6     0.14   0.01  -0.61     0.07   0.08  -0.13    -0.00  -0.02  -0.03
   3   6    -0.03  -0.01   0.15     0.08   0.07   0.08    -0.02  -0.02   0.01
   4   6    -0.09   0.00   0.38     0.11   0.02   0.06    -0.02   0.00  -0.00
   5   6     0.07   0.02  -0.35     0.09   0.01  -0.05    -0.01   0.01  -0.01
   6   6     0.02   0.02  -0.11     0.16   0.03  -0.01    -0.03   0.01  -0.02
   7   1    -0.03  -0.00   0.15     0.03   0.04   0.06    -0.01  -0.01   0.01
   8   1    -0.01   0.01   0.05     0.04   0.01   0.03    -0.01   0.00   0.00
   9   1    -0.06   0.00   0.28     0.01   0.04   0.08    -0.00  -0.01   0.02
  10   8     0.01  -0.05   0.04    -0.03  -0.08   0.18    -0.00  -0.02   0.11
  11  17    -0.01  -0.00   0.05    -0.14  -0.08  -0.02     0.02   0.02   0.01
  12  17     0.02  -0.02  -0.07    -0.02  -0.05  -0.02     0.01  -0.00  -0.00
  13   6     0.01   0.01   0.05    -0.12  -0.02  -0.06     0.03   0.14  -0.11
  14   6    -0.12   0.01   0.02     0.28   0.01   0.04    -0.01  -0.39   0.13
  15   6     0.08  -0.01   0.03    -0.38   0.09   0.03     0.00   0.17  -0.11
  16   6    -0.10   0.06   0.06     0.19  -0.12  -0.22     0.04  -0.21   0.03
  17   6     0.08  -0.01   0.03    -0.44   0.08  -0.19    -0.12  -0.31   0.12
  18   1     0.03  -0.00   0.01    -0.12   0.02   0.01    -0.01   0.03  -0.03
  19   6    -0.01   0.01   0.00    -0.07  -0.10  -0.03     0.17   0.60  -0.24
  20   1    -0.03   0.02   0.01     0.04  -0.03  -0.07     0.01  -0.10   0.03
  21   1     0.03  -0.01   0.00    -0.14   0.05  -0.04    -0.08  -0.23   0.11
  22   8    -0.05  -0.03  -0.12     0.20   0.04   0.30     0.05   0.15   0.02
  23   1     0.03  -0.01  -0.01    -0.02   0.01   0.04    -0.01   0.08  -0.03
  24  17     0.04  -0.01   0.02     0.05  -0.03  -0.08    -0.05  -0.04   0.01
                     25                     26                     27
                        a                      a                      a 
 Frequencies --   627.0544               636.9542               655.8977
 Red. masses --    13.2672                12.8734                11.9737
 Frc consts  --     0.0000                 0.0000                 0.0000
 IR Inten    --    18.5791                12.4410                 4.8457
 Raman Activ --     0.0000                 0.0000                 0.0000
 Depolar     --     0.0000                 0.0000                 0.0000
 Atom AN      X      Y      Z        X      Y      Z        X      Y      Z
   1   6    -0.29  -0.27  -0.03    -0.05  -0.01   0.18    -0.05   0.00   0.20
   2   6    -0.12  -0.18  -0.09     0.05   0.03  -0.23     0.05  -0.01  -0.24
   3   6     0.27  -0.18   0.10    -0.09   0.02   0.16    -0.06  -0.02   0.19
   4   6     0.13   0.09  -0.03     0.06  -0.07  -0.27     0.05   0.00  -0.34
   5   6     0.06   0.20   0.07    -0.05  -0.10   0.31    -0.10   0.02   0.45
   6   6    -0.51   0.17  -0.16     0.14  -0.14  -0.18     0.03   0.03  -0.22
   7   1     0.08  -0.04   0.04    -0.03   0.01   0.08    -0.02  -0.01   0.06
   8   1    -0.15   0.03  -0.05     0.03  -0.06  -0.07     0.02   0.01  -0.11
   9   1    -0.02  -0.07   0.02    -0.05  -0.00   0.07     0.00   0.00   0.04
  10   8     0.16   0.22   0.09    -0.16   0.23   0.07     0.08  -0.03  -0.13
  11  17     0.21   0.07   0.05    -0.01  -0.00   0.00     0.01   0.01   0.01
  12  17     0.03  -0.09   0.01    -0.01   0.08   0.01     0.00  -0.00   0.02
  13   6     0.04   0.07  -0.04    -0.11   0.13  -0.17     0.02  -0.29   0.17
  14   6     0.01  -0.13   0.03     0.02  -0.23   0.08     0.05   0.33  -0.15
  15   6    -0.11  -0.03   0.08     0.04  -0.27  -0.29     0.02   0.23   0.12
  16   6     0.05   0.03  -0.09     0.15   0.11   0.07    -0.09  -0.16  -0.01
  17   6    -0.10   0.09  -0.04     0.17   0.04  -0.07    -0.08  -0.10   0.09
  18   1    -0.04   0.01   0.01     0.03  -0.06  -0.09    -0.00   0.07   0.03
  19   6    -0.06  -0.07   0.03     0.17  -0.14   0.09    -0.07   0.16  -0.07
  20   1     0.03   0.04  -0.04     0.06   0.07   0.00    -0.03  -0.08   0.01
  21   1    -0.02   0.05  -0.02     0.00   0.07   0.01     0.01  -0.05  -0.00
  22   8     0.02   0.01   0.01     0.03   0.08   0.13    -0.03  -0.08  -0.06
  23   1    -0.00   0.01  -0.00    -0.06   0.02   0.00     0.01  -0.02  -0.00
  24  17     0.04  -0.02  -0.02    -0.18   0.06   0.03     0.08  -0.03  -0.02
                     28                     29                     30
                        a                      a                      a 
 Frequencies --   674.8955               731.6770               788.4945
 Red. masses --    12.5967                14.5450                11.9664
 Frc consts  --     0.0000                 0.0000                 0.0000
 IR Inten    --     9.3570                65.9924                25.9064
 Raman Activ --     0.0000                 0.0000                 0.0000
 Depolar     --     0.0000                 0.0000                 0.0000
 Atom AN      X      Y      Z        X      Y      Z        X      Y      Z
   1   6    -0.03  -0.06  -0.06    -0.10   0.10  -0.07    -0.02   0.28   0.04
   2   6     0.02   0.02   0.06    -0.27  -0.15  -0.02    -0.21  -0.16  -0.08
   3   6     0.27   0.02   0.01    -0.25  -0.19  -0.11    -0.03  -0.20   0.03
   4   6     0.14   0.13   0.12    -0.08  -0.42   0.06     0.02  -0.19  -0.04
   5   6     0.03   0.06  -0.14     0.26  -0.05  -0.12     0.11   0.04   0.09
   6   6    -0.13   0.07   0.02     0.08  -0.15   0.05    -0.00   0.15   0.03
   7   1     0.09   0.03   0.02    -0.06  -0.02   0.02     0.03  -0.02  -0.06
   8   1    -0.04   0.03   0.03    -0.05  -0.16   0.04    -0.01  -0.01  -0.09
   9   1     0.01  -0.02   0.00    -0.05   0.03   0.03     0.10   0.08  -0.07
  10   8    -0.13   0.08  -0.01     0.12   0.37   0.18     0.25  -0.37  -0.16
  11  17    -0.02  -0.04  -0.01     0.15   0.11   0.03     0.09   0.07   0.03
  12  17    -0.01  -0.10  -0.01     0.01   0.26   0.00     0.01   0.09   0.01
  13   6    -0.30  -0.33   0.06    -0.05  -0.22   0.08     0.02   0.04  -0.12
  14   6     0.07   0.35  -0.05     0.08   0.11  -0.11    -0.14   0.03   0.17
  15   6     0.05  -0.04  -0.43    -0.04   0.02  -0.03    -0.05  -0.02  -0.21
  16   6    -0.02  -0.05   0.26     0.06  -0.10  -0.03    -0.20   0.22   0.22
  17   6     0.04  -0.18  -0.04    -0.06  -0.05   0.03    -0.09   0.05  -0.15
  18   1     0.05   0.02  -0.13    -0.01   0.09  -0.05    -0.07  -0.14  -0.01
  19   6     0.23   0.08  -0.04     0.02   0.06  -0.01     0.01  -0.07  -0.02
  20   1    -0.04  -0.02   0.07     0.05   0.02  -0.02    -0.18  -0.05   0.08
  21   1    -0.05   0.03   0.03    -0.01   0.08  -0.02    -0.11  -0.13   0.06
  22   8     0.05  -0.01   0.17    -0.02  -0.02   0.01     0.13   0.04   0.14
  23   1    -0.00  -0.00   0.03    -0.04  -0.01  -0.01     0.12   0.00   0.08
  24  17    -0.14   0.05   0.03    -0.00  -0.01  -0.01     0.01   0.01   0.01
                     31                     32                     33
                        a                      a                      a 
 Frequencies --   820.5691               826.4183               849.5758
 Red. masses --     4.0785                 5.0317                 3.4079
 Frc consts  --     0.0000                 0.0000                 0.0000
 IR Inten    --    61.7233                29.9887                 0.8160
 Raman Activ --     0.0000                 0.0000                 0.0000
 Depolar     --     0.0000                 0.0000                 0.0000
 Atom AN      X      Y      Z        X      Y      Z        X      Y      Z
   1   6     0.03  -0.01  -0.17     0.06   0.02  -0.21     0.00  -0.01   0.00
   2   6    -0.03   0.00   0.10    -0.04  -0.01   0.12     0.01   0.00   0.00
   3   6     0.04   0.00  -0.12     0.01  -0.00  -0.14    -0.01   0.00  -0.00
   4   6     0.00  -0.01   0.04    -0.02   0.01   0.03    -0.00   0.00  -0.00
   5   6    -0.02  -0.01   0.11    -0.04  -0.00   0.20     0.00   0.00   0.00
   6   6     0.04  -0.02  -0.16     0.04   0.03  -0.20     0.00  -0.00   0.00
   7   1    -0.04   0.00   0.23    -0.07  -0.01   0.27    -0.00  -0.00   0.00
   8   1    -0.07  -0.00   0.31    -0.08   0.03   0.37     0.00   0.00   0.00
   9   1    -0.09  -0.01   0.35    -0.08   0.00   0.44    -0.00  -0.00  -0.00
  10   8    -0.06   0.09  -0.02     0.12  -0.15  -0.08     0.02  -0.01   0.00
  11  17     0.01   0.00  -0.01     0.01   0.00  -0.01    -0.00  -0.00  -0.00
  12  17     0.00   0.00  -0.01     0.00  -0.00  -0.01    -0.00  -0.00  -0.00
  13   6    -0.05  -0.15   0.08     0.07   0.13  -0.12     0.01  -0.00  -0.01
  14   6     0.00  -0.06  -0.01    -0.04   0.06   0.02    -0.02  -0.04   0.02
  15   6     0.05   0.17  -0.04    -0.04  -0.13  -0.00    -0.03  -0.13   0.05
  16   6     0.08   0.14  -0.10    -0.13  -0.07   0.11     0.08   0.35  -0.13
  17   6     0.07   0.19  -0.06    -0.06  -0.13   0.04    -0.06  -0.19   0.08
  18   1    -0.05  -0.27   0.13     0.02   0.18  -0.11     0.07   0.31  -0.14
  19   6    -0.02  -0.10   0.05    -0.03   0.08  -0.04     0.00   0.01  -0.01
  20   1    -0.06  -0.34   0.13     0.00   0.26  -0.09    -0.17  -0.66   0.27
  21   1    -0.09  -0.41   0.18     0.06   0.30  -0.13     0.08   0.31  -0.13
  22   8    -0.01   0.01  -0.03     0.06  -0.00   0.08     0.01   0.02  -0.00
  23   1    -0.02   0.02  -0.02     0.05   0.00   0.03     0.00  -0.00   0.00
  24  17    -0.00   0.02  -0.01     0.02  -0.02   0.01     0.00   0.00  -0.00
                     34                     35                     36
                        a                      a                      a 
 Frequencies --   855.9179               866.1681               882.2155
 Red. masses --    12.4004                 3.2614                12.5998
 Frc consts  --     0.0000                 0.0000                 0.0000
 IR Inten    --    50.0304                 1.5337                71.1220
 Raman Activ --     0.0000                 0.0000                 0.0000
 Depolar     --     0.0000                 0.0000                 0.0000
 Atom AN      X      Y      Z        X      Y      Z        X      Y      Z
   1   6    -0.02   0.41  -0.02     0.03   0.00  -0.14     0.02  -0.11  -0.03
   2   6    -0.25  -0.16  -0.05    -0.01  -0.00  -0.02     0.06   0.04   0.02
   3   6     0.31  -0.23   0.06    -0.09  -0.01   0.39    -0.11   0.06  -0.01
   4   6     0.12  -0.08   0.02     0.01  -0.01  -0.02    -0.03   0.00  -0.01
   5   6    -0.06  -0.05   0.03     0.01  -0.00  -0.03     0.04   0.03   0.03
   6   6     0.03   0.14  -0.00     0.03  -0.01  -0.14    -0.02  -0.02  -0.01
   7   1     0.13   0.02   0.05     0.18   0.02  -0.77    -0.04  -0.01  -0.03
   8   1    -0.01   0.01   0.01    -0.08   0.01   0.37     0.00   0.01   0.00
   9   1     0.08   0.12   0.07    -0.05  -0.00   0.18    -0.03  -0.03   0.05
  10   8    -0.45  -0.17  -0.08    -0.01   0.01  -0.00     0.20  -0.02  -0.02
  11  17     0.08   0.05   0.02     0.00   0.00   0.01    -0.02  -0.01  -0.00
  12  17     0.00   0.04   0.00    -0.00   0.01   0.01    -0.00  -0.00   0.00
  13   6    -0.08   0.12   0.09    -0.00  -0.01  -0.00     0.06   0.04   0.10
  14   6     0.06  -0.05  -0.04     0.00   0.00  -0.01     0.02   0.00   0.02
  15   6     0.04   0.05   0.17     0.00  -0.00  -0.00    -0.08   0.11   0.21
  16   6     0.17  -0.09  -0.06    -0.00  -0.00  -0.01     0.16   0.08   0.30
  17   6     0.06  -0.06   0.02     0.01   0.00   0.01    -0.27  -0.09  -0.35
  18   1     0.11   0.02   0.08    -0.00   0.00  -0.00     0.11   0.01   0.11
  19   6     0.15  -0.02   0.00    -0.02   0.01   0.00     0.54  -0.15  -0.04
  20   1     0.10   0.01  -0.02    -0.00  -0.01  -0.00     0.02   0.04   0.07
  21   1     0.07   0.08  -0.05     0.01   0.00   0.00    -0.11   0.01  -0.07
  22   8    -0.14  -0.02  -0.16     0.01   0.00   0.01    -0.24  -0.03  -0.23
  23   1    -0.08  -0.00  -0.06     0.00   0.01  -0.00    -0.05  -0.01  -0.05
  24  17    -0.06   0.01   0.00     0.01  -0.00  -0.00    -0.16   0.05   0.01
                     37                     38                     39
                        a                      a                      a 
 Frequencies --   900.5664               902.0796              1020.7011
 Red. masses --     3.4149                 3.4591                11.0109
 Frc consts  --     0.0000                 0.0000                 0.0000
 IR Inten    --     1.3085                 0.1065               118.5630
 Raman Activ --     0.0000                 0.0000                 0.0000
 Depolar     --     0.0000                 0.0000                 0.0000
 Atom AN      X      Y      Z        X      Y      Z        X      Y      Z
   1   6     0.01   0.03  -0.04    -0.08   0.00   0.31     0.11  -0.21   0.02
   2   6    -0.01  -0.01  -0.00    -0.02  -0.01   0.01     0.20   0.13   0.05
   3   6     0.01  -0.01   0.02     0.03  -0.01  -0.10    -0.17   0.19  -0.04
   4   6     0.00   0.01  -0.01    -0.01  -0.01   0.06     0.16  -0.58   0.03
   5   6    -0.01  -0.01   0.00    -0.00  -0.00   0.00     0.21   0.06   0.06
   6   6    -0.01   0.01   0.04     0.07   0.00  -0.30    -0.27   0.30  -0.06
   7   1     0.01  -0.00  -0.01    -0.01   0.00   0.09     0.07   0.25   0.02
   8   1     0.02   0.00  -0.08    -0.13   0.03   0.60    -0.02   0.18  -0.01
   9   1    -0.01   0.01   0.08     0.13   0.00  -0.60     0.18  -0.06   0.04
  10   8    -0.01  -0.03   0.00     0.00  -0.01  -0.01    -0.19  -0.13  -0.06
  11  17     0.00   0.00   0.00     0.00   0.00   0.00    -0.04  -0.02  -0.01
  12  17     0.00  -0.00   0.00     0.00   0.00  -0.00    -0.01   0.11  -0.00
  13   6    -0.00   0.02  -0.00     0.00   0.01   0.00    -0.07   0.04   0.02
  14   6     0.02   0.07  -0.03     0.00   0.01  -0.01     0.00   0.00   0.01
  15   6    -0.08  -0.31   0.14    -0.01  -0.03   0.04     0.00  -0.01  -0.00
  16   6    -0.01  -0.06   0.03     0.01  -0.01   0.02     0.02  -0.03  -0.05
  17   6     0.07   0.24  -0.11    -0.00   0.03  -0.03     0.05   0.00   0.04
  18   1     0.15   0.62  -0.27     0.03   0.08  -0.03     0.03   0.01   0.01
  19   6     0.02   0.02  -0.01     0.03  -0.01  -0.00    -0.00   0.00   0.00
  20   1     0.00   0.02  -0.01     0.01   0.01   0.00     0.01  -0.00  -0.01
  21   1    -0.12  -0.48   0.20    -0.02  -0.06   0.02     0.01   0.00   0.01
  22   8    -0.01  -0.01  -0.01    -0.01  -0.00  -0.01    -0.01  -0.00  -0.02
  23   1    -0.00  -0.01   0.00    -0.00   0.01  -0.01    -0.01  -0.00  -0.01
  24  17    -0.00   0.00  -0.00    -0.01   0.00   0.00    -0.00  -0.00  -0.00
                     40                     41                     42
                        a                      a                      a 
 Frequencies --  1070.7591              1097.4643              1099.4546
 Red. masses --     6.3955                 5.3451                 6.3258
 Frc consts  --     0.0000                 0.0000                 0.0000
 IR Inten    --   278.9980                33.1900               115.6681
 Raman Activ --     0.0000                 0.0000                 0.0000
 Depolar     --     0.0000                 0.0000                 0.0000
 Atom AN      X      Y      Z        X      Y      Z        X      Y      Z
   1   6     0.00  -0.00   0.00     0.02  -0.07   0.00    -0.06   0.25  -0.01
   2   6    -0.00   0.00  -0.00    -0.14  -0.05  -0.03     0.44   0.19   0.11
   3   6     0.02   0.00   0.00     0.00   0.04   0.00     0.05  -0.14   0.01
   4   6     0.00  -0.03   0.00     0.00   0.01   0.00    -0.01  -0.09  -0.00
   5   6    -0.01   0.00  -0.01    -0.07   0.00  -0.02     0.16  -0.00   0.03
   6   6    -0.00   0.01   0.00     0.06  -0.03   0.02    -0.19   0.07  -0.05
   7   1     0.02   0.02   0.00     0.09   0.16   0.02    -0.24  -0.49  -0.06
   8   1     0.01   0.02  -0.01     0.09   0.11   0.01    -0.25  -0.30  -0.03
   9   1    -0.00  -0.00  -0.00     0.02  -0.02   0.01    -0.13   0.08  -0.03
  10   8    -0.11   0.04   0.03    -0.05   0.05   0.02    -0.09  -0.03  -0.01
  11  17     0.00  -0.00   0.00     0.02   0.01   0.01    -0.07  -0.04  -0.02
  12  17     0.00   0.00  -0.00    -0.00  -0.00  -0.00     0.00   0.02   0.00
  13   6     0.11  -0.06  -0.06     0.10  -0.07  -0.08     0.01  -0.01  -0.01
  14   6     0.03  -0.11  -0.23    -0.02   0.01   0.02    -0.00   0.01   0.01
  15   6    -0.02   0.05   0.12    -0.09   0.09   0.13    -0.03   0.02   0.04
  16   6    -0.18   0.16   0.28    -0.08  -0.03  -0.11    -0.02  -0.02  -0.05
  17   6    -0.01  -0.06  -0.15     0.15   0.05   0.21     0.06   0.02   0.08
  18   1     0.03   0.01   0.04    -0.49   0.06  -0.12    -0.13   0.02  -0.03
  19   6    -0.12   0.04   0.00     0.38  -0.16  -0.14     0.12  -0.05  -0.04
  20   1    -0.09   0.05   0.07    -0.50   0.04  -0.21    -0.16   0.01  -0.07
  21   1     0.16  -0.12  -0.18     0.01   0.04   0.09     0.00   0.02   0.04
  22   8     0.35  -0.05   0.10     0.04  -0.01   0.00     0.03  -0.01  -0.01
  23   1    -0.62   0.04  -0.31    -0.07   0.00  -0.04    -0.06   0.00  -0.03
  24  17     0.03  -0.01   0.00    -0.06   0.02   0.01    -0.02   0.01   0.00
                     43                     44                     45
                        a                      a                      a 
 Frequencies --  1120.0039              1147.1772              1172.7167
 Red. masses --     5.4921                 3.1004                 7.0538
 Frc consts  --     0.0000                 0.0000                 0.0000
 IR Inten    --   229.3357                 0.1857               166.8136
 Raman Activ --     0.0000                 0.0000                 0.0000
 Depolar     --     0.0000                 0.0000                 0.0000
 Atom AN      X      Y      Z        X      Y      Z        X      Y      Z
   1   6     0.00  -0.03  -0.00     0.08  -0.00   0.02    -0.02  -0.04  -0.01
   2   6    -0.06  -0.04  -0.01    -0.09  -0.12  -0.02    -0.04  -0.01  -0.01
   3   6    -0.06   0.03  -0.01    -0.12   0.21  -0.02    -0.05  -0.01  -0.01
   4   6     0.00   0.09   0.00     0.01   0.23   0.01     0.03   0.03   0.01
   5   6     0.05   0.00   0.02     0.09  -0.13   0.01     0.07   0.05   0.03
   6   6     0.03  -0.01   0.00    -0.09  -0.04  -0.03     0.04   0.01   0.01
   7   1    -0.04  -0.02  -0.01    -0.07   0.01  -0.02    -0.05  -0.06  -0.01
   8   1    -0.00  -0.02   0.01    -0.25  -0.40  -0.03     0.04   0.06   0.01
   9   1     0.06  -0.01   0.01     0.73   0.00   0.16    -0.11  -0.01  -0.02
  10   8     0.21  -0.10  -0.06    -0.02   0.02   0.00     0.23  -0.11  -0.05
  11  17     0.01   0.01   0.00     0.02   0.01   0.00     0.00   0.00   0.00
  12  17    -0.00  -0.02  -0.00    -0.01  -0.04  -0.00     0.00  -0.00   0.00
  13   6    -0.24   0.17   0.22    -0.03  -0.00  -0.01    -0.43   0.16   0.09
  14   6     0.11   0.03   0.14     0.00   0.01   0.00     0.15   0.06   0.25
  15   6     0.02  -0.07  -0.14    -0.02   0.01   0.01    -0.14   0.01  -0.07
  16   6    -0.03  -0.08  -0.21     0.02   0.00   0.02     0.16  -0.04   0.01
  17   6     0.01   0.05   0.13     0.02  -0.01  -0.00     0.14  -0.02   0.04
  18   1     0.34  -0.05   0.08    -0.08   0.01  -0.02    -0.23   0.02  -0.08
  19   6    -0.00   0.03   0.07     0.01  -0.01  -0.01    -0.06   0.03   0.04
  20   1    -0.26   0.00  -0.15     0.02  -0.00   0.01     0.01  -0.01  -0.01
  21   1    -0.29   0.20   0.28     0.08  -0.05  -0.07     0.45  -0.26  -0.34
  22   8     0.06  -0.07  -0.13    -0.01   0.00  -0.00    -0.11  -0.03  -0.15
  23   1    -0.38   0.01  -0.22     0.00  -0.00   0.00    -0.12   0.00  -0.07
  24  17    -0.00  -0.00  -0.00    -0.00   0.00   0.00     0.00  -0.00  -0.00
                     46                     47                     48
                        a                      a                      a 
 Frequencies --  1214.6131              1230.9133              1242.1999
 Red. masses --     3.6996                 3.6358                10.4030
 Frc consts  --     0.0000                 0.0000                 0.0000
 IR Inten    --     7.5187                34.9199               159.8977
 Raman Activ --     0.0000                 0.0000                 0.0000
 Depolar     --     0.0000                 0.0000                 0.0000
 Atom AN      X      Y      Z        X      Y      Z        X      Y      Z
   1   6    -0.12  -0.06  -0.03    -0.01  -0.03  -0.00     0.00  -0.22  -0.00
   2   6    -0.23   0.05  -0.05    -0.06   0.01  -0.01    -0.14  -0.20  -0.04
   3   6    -0.06   0.14  -0.01    -0.02   0.03  -0.00    -0.17   0.10  -0.04
   4   6     0.22   0.05   0.05     0.05   0.01   0.01     0.02   0.22   0.01
   5   6     0.19  -0.16   0.04     0.05   0.02   0.00     0.45   0.32   0.11
   6   6     0.01   0.01   0.01     0.02  -0.01   0.01     0.21   0.12   0.05
   7   1    -0.34  -0.52  -0.08    -0.06  -0.09  -0.01    -0.06   0.02  -0.01
   8   1     0.28   0.48   0.04     0.03   0.04   0.00    -0.08  -0.23  -0.01
   9   1     0.19  -0.02   0.04     0.03  -0.01   0.01    -0.30  -0.07  -0.07
  10   8    -0.09   0.01  -0.01    -0.06   0.03   0.03    -0.24  -0.20  -0.07
  11  17     0.02   0.01   0.01     0.01   0.00   0.00     0.03   0.02   0.01
  12  17    -0.01  -0.01  -0.00    -0.00  -0.00  -0.00     0.00  -0.04  -0.00
  13   6     0.03  -0.00   0.04    -0.06  -0.13  -0.30    -0.10   0.02  -0.03
  14   6    -0.05  -0.01  -0.05     0.08  -0.08  -0.14    -0.14  -0.02  -0.15
  15   6     0.00   0.00   0.01    -0.06   0.03   0.04    -0.08   0.05   0.08
  16   6    -0.04   0.00  -0.01     0.08   0.00   0.06    -0.08  -0.01  -0.06
  17   6     0.02  -0.01  -0.02    -0.09   0.08   0.12     0.11  -0.01   0.05
  18   1    -0.07   0.01  -0.02     0.50  -0.04   0.20     0.05   0.02   0.05
  19   6     0.02  -0.02  -0.03     0.02   0.05   0.14     0.12  -0.05  -0.06
  20   1     0.10  -0.01   0.04    -0.51   0.06  -0.18     0.15  -0.02   0.04
  21   1    -0.06   0.03   0.05     0.23  -0.14  -0.18     0.00   0.02   0.04
  22   8     0.03   0.00   0.03    -0.07   0.04   0.05     0.09   0.01   0.10
  23   1     0.00   0.00   0.00     0.21  -0.01   0.12     0.03   0.00   0.03
  24  17    -0.00   0.00   0.00     0.00  -0.00  -0.01    -0.01   0.01   0.01
                     49                     50                     51
                        a                      a                      a 
 Frequencies --  1277.4323              1312.9822              1327.9349
 Red. masses --    11.1337                11.6872                11.3717
 Frc consts  --     0.0000                 0.0000                 0.0000
 IR Inten    --   458.6710                28.3300                25.9541
 Raman Activ --     0.0000                 0.0000                 0.0000
 Depolar     --     0.0000                 0.0000                 0.0000
 Atom AN      X      Y      Z        X      Y      Z        X      Y      Z
   1   6    -0.04  -0.08  -0.01    -0.33   0.07  -0.08    -0.12   0.02  -0.03
   2   6    -0.04  -0.12  -0.01     0.25  -0.35   0.05     0.07  -0.09   0.02
   3   6    -0.03   0.09  -0.01     0.14   0.27   0.04     0.06   0.09   0.02
   4   6    -0.01   0.08  -0.00    -0.36   0.03  -0.08    -0.12  -0.01  -0.03
   5   6     0.19   0.04   0.05     0.18  -0.44   0.02     0.04  -0.13  -0.00
   6   6     0.09   0.11   0.02     0.09   0.31   0.02     0.04   0.08   0.01
   7   1    -0.03  -0.01  -0.01     0.05   0.09   0.01     0.01   0.01   0.00
   8   1    -0.02  -0.05   0.00     0.03   0.10   0.01     0.02   0.04   0.00
   9   1    -0.11  -0.02  -0.02    -0.05   0.02  -0.01     0.01   0.01   0.00
  10   8    -0.30  -0.01  -0.02     0.06   0.04   0.02     0.07   0.02   0.01
  11  17     0.01   0.01   0.00    -0.00  -0.00  -0.00    -0.00  -0.00  -0.00
  12  17    -0.00  -0.01  -0.00    -0.01   0.01  -0.00    -0.00   0.00  -0.00
  13   6     0.35  -0.07   0.05     0.00   0.04   0.12    -0.18  -0.12  -0.37
  14   6     0.21   0.06   0.30     0.05  -0.06  -0.12    -0.30   0.17   0.23
  15   6     0.26  -0.13  -0.15    -0.13   0.01  -0.05     0.26   0.00   0.15
  16   6     0.22   0.01   0.16    -0.10   0.01  -0.05     0.28  -0.04   0.08
  17   6    -0.24   0.02  -0.11     0.07  -0.04  -0.05    -0.19   0.16   0.27
  18   1    -0.17  -0.01  -0.14     0.01  -0.00   0.01     0.08  -0.00   0.05
  19   6    -0.28   0.09   0.05     0.06   0.04   0.12    -0.04  -0.16  -0.39
  20   1    -0.24   0.04  -0.06    -0.03  -0.00  -0.01     0.13  -0.01   0.04
  21   1    -0.07   0.00  -0.04     0.03  -0.02  -0.03     0.01   0.00   0.02
  22   8    -0.17  -0.03  -0.18    -0.00   0.01   0.02     0.08  -0.01   0.02
  23   1    -0.05  -0.01  -0.04     0.06  -0.00   0.03    -0.16   0.01  -0.08
  24  17     0.03  -0.01  -0.01    -0.00   0.00   0.00    -0.01   0.00  -0.00
                     52                     53                     54
                        a                      a                      a 
 Frequencies --  1386.4413              1406.5559              1432.2656
 Red. masses --    10.7575                10.6233                 9.7361
 Frc consts  --     0.0000                 0.0000                 0.0000
 IR Inten    --    17.1920                43.5364               439.2324
 Raman Activ --     0.0000                 0.0000                 0.0000
 Depolar     --     0.0000                 0.0000                 0.0000
 Atom AN      X      Y      Z        X      Y      Z        X      Y      Z
   1   6    -0.32  -0.24  -0.08    -0.04   0.00  -0.01    -0.25   0.12  -0.06
   2   6    -0.11   0.30  -0.02     0.02   0.09   0.00     0.23   0.17   0.05
   3   6     0.37   0.08   0.08     0.01  -0.09   0.00    -0.14  -0.39  -0.04
   4   6    -0.35  -0.29  -0.08    -0.08   0.02  -0.02    -0.19   0.25  -0.04
   5   6    -0.05   0.33  -0.00     0.06   0.06   0.01     0.42   0.11   0.09
   6   6     0.34   0.00   0.08     0.00  -0.07   0.00    -0.08  -0.31  -0.02
   7   1     0.01  -0.16   0.00     0.04   0.03   0.01     0.15   0.22   0.04
   8   1     0.02  -0.14   0.01     0.04   0.04   0.01     0.17   0.24   0.03
   9   1     0.25  -0.07   0.06     0.07   0.00   0.01     0.22   0.04   0.05
  10   8    -0.00  -0.08  -0.01    -0.04  -0.03  -0.03    -0.10  -0.05  -0.02
  11  17     0.01  -0.02   0.00    -0.00  -0.00  -0.00    -0.01  -0.00  -0.00
  12  17     0.01   0.02   0.00     0.00  -0.00   0.00     0.01  -0.02   0.00
  13   6    -0.01   0.01  -0.01     0.24   0.05   0.23    -0.05  -0.01  -0.03
  14   6     0.06  -0.01   0.02    -0.45   0.11  -0.01     0.08  -0.02   0.00
  15   6    -0.02   0.01   0.01     0.07  -0.12  -0.23    -0.03   0.02   0.03
  16   6    -0.02   0.01   0.01     0.05  -0.13  -0.27     0.02   0.02   0.06
  17   6     0.05  -0.02  -0.02    -0.34   0.13   0.09     0.07  -0.02  -0.01
  18   1    -0.01   0.01   0.00     0.04  -0.03  -0.07    -0.00   0.01   0.01
  19   6    -0.02   0.00  -0.01     0.29   0.05   0.29    -0.07  -0.01  -0.07
  20   1     0.00   0.00   0.01     0.05  -0.04  -0.07    -0.02   0.01   0.01
  21   1    -0.02   0.01   0.02     0.19  -0.14  -0.22    -0.03   0.02   0.04
  22   8    -0.02  -0.00  -0.02     0.14  -0.01   0.06    -0.03   0.00  -0.02
  23   1     0.01  -0.00   0.00    -0.09   0.01  -0.05     0.02  -0.00   0.01
  24  17     0.00   0.00   0.00    -0.02  -0.00  -0.01     0.00  -0.00   0.00
                     55                     56                     57
                        a                      a                      a 
 Frequencies --  1467.7473              1554.6368              1563.0481
 Red. masses --    10.4194                11.7412                11.6451
 Frc consts  --     0.0000                 0.0000                 0.0000
 IR Inten    --   470.6246                25.0754                 7.1769
 Raman Activ --     0.0000                 0.0000                 0.0000
 Depolar     --     0.0000                 0.0000                 0.0000
 Atom AN      X      Y      Z        X      Y      Z        X      Y      Z
   1   6    -0.01  -0.00  -0.00     0.20  -0.23   0.04     0.07  -0.02   0.02
   2   6     0.01   0.01   0.00    -0.25   0.48  -0.05    -0.05   0.05  -0.01
   3   6     0.00  -0.00   0.00    -0.01  -0.36  -0.01     0.02  -0.02   0.01
   4   6    -0.01  -0.01  -0.00    -0.14   0.14  -0.03    -0.05   0.01  -0.01
   5   6     0.00   0.01  -0.00     0.14  -0.45   0.02     0.03  -0.06   0.00
   6   6     0.01   0.00   0.00     0.06   0.41   0.02    -0.02   0.02  -0.01
   7   1     0.00  -0.00  -0.00     0.07   0.02   0.01     0.01  -0.00   0.00
   8   1    -0.00  -0.01  -0.00    -0.09  -0.07  -0.02    -0.01   0.01  -0.00
   9   1     0.00  -0.00   0.00    -0.05  -0.06  -0.01    -0.01  -0.00  -0.00
  10   8     0.10  -0.05  -0.03     0.02   0.04   0.01    -0.01   0.02   0.02
  11  17    -0.00  -0.00  -0.00     0.00  -0.00   0.00     0.00  -0.00   0.00
  12  17     0.00   0.00   0.00     0.00   0.01   0.00     0.00   0.00   0.00
  13   6    -0.33   0.14   0.13    -0.01   0.01   0.05     0.14  -0.14  -0.24
  14   6    -0.27  -0.09  -0.40     0.02  -0.03  -0.06    -0.35   0.21   0.29
  15   6     0.35  -0.02   0.17    -0.00  -0.01  -0.02    -0.33   0.11   0.07
  16   6     0.37  -0.06   0.09     0.01   0.01   0.04     0.27  -0.10  -0.08
  17   6    -0.03  -0.09  -0.22    -0.03   0.03   0.05     0.38  -0.23  -0.30
  18   1    -0.23   0.03  -0.07     0.01  -0.00  -0.00     0.05   0.02   0.07
  19   6    -0.15   0.10   0.15    -0.01  -0.03  -0.08    -0.10   0.14   0.26
  20   1    -0.24   0.02  -0.10    -0.01   0.00   0.01    -0.04  -0.01  -0.06
  21   1    -0.13   0.05   0.04     0.01  -0.00  -0.00    -0.07   0.05   0.07
  22   8     0.08   0.03   0.13    -0.00   0.00   0.01     0.04  -0.02  -0.02
  23   1     0.08   0.00   0.06     0.01  -0.00   0.01    -0.08   0.00  -0.05
  24  17     0.00  -0.00  -0.01     0.00   0.00   0.00    -0.00   0.00  -0.00
                     58                     59                     60
                        a                      a                      a 
 Frequencies --  1568.8767              1581.5983              3105.1900
 Red. masses --    11.6985                11.7359                 1.8204
 Frc consts  --     0.0000                 0.0000                 0.0000
 IR Inten    --    21.5302                74.6866                13.6896
 Raman Activ --     0.0000                 0.0000                 0.0000
 Depolar     --     0.0000                 0.0000                 0.0000
 Atom AN      X      Y      Z        X      Y      Z        X      Y      Z
   1   6    -0.46  -0.09  -0.11     0.16   0.01   0.04     0.00  -0.06  -0.00
   2   6     0.19   0.02   0.04    -0.08   0.04  -0.02    -0.00  -0.00  -0.00
   3   6    -0.28  -0.25  -0.07     0.08   0.04   0.02     0.00   0.00   0.00
   4   6     0.44   0.06   0.10    -0.16   0.01  -0.04     0.00  -0.00   0.00
   5   6    -0.25  -0.03  -0.05     0.13  -0.04   0.03    -0.01  -0.00  -0.00
   6   6     0.32   0.28   0.07    -0.10  -0.06  -0.02    -0.19   0.11  -0.05
   7   1     0.01   0.08   0.00     0.01  -0.02   0.00    -0.00  -0.00  -0.00
   8   1    -0.01  -0.10  -0.00     0.00   0.03   0.00     0.68  -0.40   0.16
   9   1     0.09  -0.02   0.02    -0.03   0.00  -0.01    -0.00   0.25   0.00
  10   8     0.01   0.01   0.01    -0.01   0.01   0.01    -0.00   0.00   0.00
  11  17     0.00   0.00   0.00    -0.00  -0.00  -0.00     0.00   0.00   0.00
  12  17    -0.00   0.00  -0.00     0.00  -0.00   0.00    -0.00   0.00  -0.00
  13   6    -0.04  -0.05  -0.13    -0.23  -0.10  -0.35     0.00  -0.00  -0.00
  14   6     0.01   0.03   0.08     0.17   0.03   0.17     0.00   0.00   0.00
  15   6     0.10   0.01   0.08     0.40  -0.00   0.22    -0.00   0.00   0.00
  16   6    -0.10  -0.01  -0.09    -0.37   0.00  -0.23    -0.04   0.06   0.12
  17   6    -0.02  -0.03  -0.08    -0.13  -0.04  -0.16     0.00  -0.00   0.00
  18   1    -0.03   0.01   0.00    -0.10   0.02  -0.01     0.00  -0.00  -0.01
  19   6     0.06   0.05   0.15     0.18   0.11   0.38    -0.00   0.00   0.00
  20   1     0.03  -0.01  -0.00     0.09  -0.02   0.01     0.13  -0.20  -0.40
  21   1    -0.02   0.00  -0.01    -0.04  -0.00  -0.04    -0.01  -0.00  -0.00
  22   8     0.01  -0.00  -0.00    -0.01  -0.01  -0.02    -0.00  -0.00  -0.00
  23   1    -0.02   0.00  -0.01    -0.02   0.00  -0.01    -0.00  -0.00  -0.00
  24  17    -0.00  -0.00  -0.00     0.00  -0.00  -0.00     0.00  -0.00  -0.00
                     61                     62                     63
                        a                      a                      a 
 Frequencies --  3105.4630              3118.1199              3123.0214
 Red. masses --     1.8349                 1.8035                 1.8714
 Frc consts  --     0.0000                 0.0000                 0.0000
 IR Inten    --     5.5582                 9.4060                 2.2544
 Raman Activ --     0.0000                 0.0000                 0.0000
 Depolar     --     0.0000                 0.0000                 0.0000
 Atom AN      X      Y      Z        X      Y      Z        X      Y      Z
   1   6    -0.00   0.03   0.00     0.00   0.00   0.00    -0.00   0.25   0.00
   2   6     0.00   0.00   0.00    -0.00  -0.00  -0.00     0.01   0.00   0.00
   3   6    -0.00   0.00  -0.00    -0.00   0.00  -0.00    -0.08   0.05  -0.02
   4   6    -0.00   0.00  -0.00    -0.00   0.00  -0.00     0.00   0.00   0.00
   5   6     0.00   0.00   0.00     0.00  -0.00   0.00    -0.00  -0.00  -0.00
   6   6     0.11  -0.06   0.03     0.00  -0.00   0.00    -0.07   0.04  -0.02
   7   1     0.00  -0.00   0.00     0.02  -0.01   0.00     0.28  -0.17   0.06
   8   1    -0.38   0.23  -0.09    -0.01   0.01  -0.00     0.22  -0.13   0.05
   9   1     0.00  -0.13  -0.00    -0.00  -0.01  -0.00     0.00  -0.86  -0.01
  10   8    -0.00   0.00   0.00     0.00  -0.00  -0.00     0.00   0.00   0.00
  11  17    -0.00  -0.00   0.00     0.00  -0.00  -0.00    -0.00  -0.00  -0.00
  12  17     0.00  -0.00   0.00     0.00  -0.00   0.00    -0.00  -0.00  -0.00
  13   6    -0.00  -0.00  -0.00    -0.01   0.00   0.00     0.00  -0.00  -0.00
  14   6     0.01   0.00   0.01     0.00  -0.00  -0.00     0.00   0.00   0.00
  15   6     0.00  -0.00  -0.00    -0.06   0.10   0.20     0.00  -0.00  -0.00
  16   6    -0.06   0.10   0.21     0.00   0.00   0.00    -0.00   0.00   0.00
  17   6     0.01   0.00   0.00    -0.09  -0.02  -0.09     0.00   0.00   0.00
  18   1    -0.00   0.00   0.01     0.22  -0.37  -0.72    -0.00   0.00   0.00
  19   6    -0.01   0.00   0.00    -0.00   0.00  -0.00     0.00  -0.00  -0.00
  20   1     0.23  -0.36  -0.73     0.00  -0.01  -0.02     0.00  -0.00  -0.00
  21   1    -0.02  -0.00  -0.02     0.33   0.06   0.34    -0.01  -0.00  -0.01
  22   8     0.00  -0.00  -0.00     0.00   0.00   0.00    -0.00  -0.00  -0.00
  23   1    -0.00   0.00   0.00    -0.00   0.00   0.00     0.00   0.00   0.00
  24  17     0.00  -0.00  -0.00     0.00  -0.00   0.00     0.00   0.00  -0.00
                     64                     65                     66
                        a                      a                      a 
 Frequencies --  3124.4976              3129.0602              3434.5594
 Red. masses --     1.8555                 1.8906                 1.8655
 Frc consts  --     0.0000                 0.0000                 0.0000
 IR Inten    --     0.6828                 5.7460               189.5050
 Raman Activ --     0.0000                 0.0000                 0.0000
 Depolar     --     0.0000                 0.0000                 0.0000
 Atom AN      X      Y      Z        X      Y      Z        X      Y      Z
   1   6    -0.00   0.09   0.00    -0.00   0.00   0.00    -0.00  -0.00  -0.00
   2   6     0.01   0.01   0.00     0.00   0.00   0.00     0.00  -0.00  -0.00
   3   6     0.22  -0.13   0.05     0.00  -0.00   0.00     0.00   0.00  -0.00
   4   6    -0.00  -0.01  -0.00    -0.00  -0.00  -0.00    -0.00  -0.00  -0.00
   5   6    -0.00   0.00  -0.00     0.00   0.00  -0.00     0.00  -0.00   0.00
   6   6    -0.03   0.01  -0.01     0.00  -0.00   0.00    -0.00   0.00  -0.00
   7   1    -0.76   0.45  -0.16    -0.00   0.00  -0.00     0.00   0.00   0.00
   8   1     0.08  -0.05   0.02    -0.00   0.00  -0.00     0.00  -0.00   0.00
   9   1     0.00  -0.32  -0.00     0.00  -0.01  -0.00     0.00   0.00  -0.00
  10   8     0.00   0.00   0.00    -0.00  -0.00  -0.00    -0.00   0.00   0.00
  11  17    -0.00  -0.00  -0.00     0.00   0.00   0.00     0.00   0.00   0.00
  12  17    -0.00   0.00   0.00     0.00   0.00  -0.00     0.00   0.00   0.00
  13   6    -0.00   0.00   0.00     0.01  -0.00   0.00     0.00   0.00   0.00
  14   6     0.00  -0.00   0.00    -0.00   0.00   0.00    -0.00  -0.00  -0.01
  15   6    -0.00   0.00   0.00     0.04  -0.06  -0.12    -0.00  -0.00  -0.00
  16   6    -0.00   0.00   0.00    -0.00   0.00   0.01     0.00   0.00   0.00
  17   6    -0.00  -0.00  -0.00    -0.17  -0.03  -0.17     0.00   0.00   0.00
  18   1     0.00  -0.01  -0.01    -0.13   0.21   0.41    -0.00  -0.00  -0.00
  19   6     0.00  -0.00  -0.00    -0.01   0.00   0.00    -0.00  -0.00  -0.00
  20   1     0.00  -0.00  -0.00     0.01  -0.01  -0.02    -0.00   0.00   0.00
  21   1     0.00   0.00   0.00     0.57   0.11   0.60    -0.00   0.00  -0.00
  22   8     0.00  -0.00  -0.00     0.00  -0.00  -0.00     0.09  -0.10  -0.20
  23   1    -0.00   0.00   0.00    -0.00   0.00   0.00    -0.36   0.40   0.81
  24  17    -0.00   0.00   0.00     0.00  -0.00  -0.00     0.00  -0.00   0.00
