      -----------------------------------------------------------      
     |                   =====================                   |     
     |                           x T B                           |     
     |                   =====================                   |     
     |                         S. Grimme                         |     
     |          Mulliken Center for Theoretical Chemistry        |     
     |                    University of Bonn                     |     
      -----------------------------------------------------------      

   * xtb version 6.4.1 (afa7bdf) compiled by 'ehlert@majestix' on 2021-06-10

   xtb is free software: you can redistribute it and/or modify it under
   the terms of the GNU Lesser General Public License as published by
   the Free Software Foundation, either version 3 of the License, or
   (at your option) any later version.
   
   xtb is distributed in the hope that it will be useful,
   but WITHOUT ANY WARRANTY; without even the implied warranty of
   MERCHANTABILITY or FITNESS FOR A PARTICULAR PURPOSE.  See the
   GNU Lesser General Public License for more details.
   
   Cite this work as:
   * C. Bannwarth, E. Caldeweyher, S. Ehlert, A. Hansen, P. Pracht,
     J. Seibert, S. Spicher, S. Grimme, WIREs Comput. Mol. Sci., 2020, 11,
     e01493. DOI: 10.1002/wcms.1493
   
   for GFN2-xTB:
   * C. Bannwarth, S. Ehlert and S. Grimme., J. Chem. Theory Comput., 2019,
     15, 1652-1671. DOI: 10.1021/acs.jctc.8b01176
   for GFN1-xTB:
   * S. Grimme, C. Bannwarth, P. Shushkov, J. Chem. Theory Comput., 2017,
     13, 1989-2009. DOI: 10.1021/acs.jctc.7b00118
   for GFN0-xTB:
   * P. Pracht, E. Caldeweyher, S. Ehlert, S. Grimme, ChemRxiv, 2019, preprint.
     DOI: 10.26434/chemrxiv.8326202.v1
   for GFN-FF:
   * S. Spicher and S. Grimme, Angew. Chem. Int. Ed., 2020, 59, 15665-15673.
     DOI: 10.1002/anie.202004239
   
   for DFT-D4:
   * E. Caldeweyher, C. Bannwarth and S. Grimme, J. Chem. Phys., 2017,
     147, 034112. DOI: 10.1063/1.4993215
   * E. Caldeweyher, S. Ehlert, A. Hansen, H. Neugebauer, S. Spicher,
     C. Bannwarth and S. Grimme, J. Chem. Phys., 2019, 150, 154122.
     DOI: 10.1063/1.5090222
   * E. Caldeweyher, J.-M. Mewes, S. Ehlert and S. Grimme, Phys. Chem. Chem. Phys.
     2020, 22, 8499-8512. DOI: 10.1039/D0CP00502A
   
   for sTDA-xTB:
   * S. Grimme and C. Bannwarth, J. Chem. Phys., 2016, 145, 054103.
     DOI: 10.1063/1.4959605
   
   in the mass-spec context:
   * V. Asgeirsson, C. Bauer and S. Grimme, Chem. Sci., 2017, 8, 4879.
     DOI: 10.1039/c7sc00601b
   * J. Koopman and S. Grimme, ACS Omega 2019, 4, 12, 15120-15133.
     DOI: 10.1021/acsomega.9b02011
   
   for metadynamics refer to:
   * S. Grimme, J. Chem. Theory Comput., 2019, 155, 2847-2862
     DOI: 10.1021/acs.jctc.9b00143
   
   for SPH calculations refer to:
   * S. Spicher and S. Grimme, J. Chem. Theory Comput., 2021, 17, 1701-1714
     DOI: 10.1021/acs.jctc.0c01306
   
   with help from (in alphabetical order)
   P. Atkinson, C. Bannwarth, F. Bohle, G. Brandenburg, E. Caldeweyher
   M. Checinski, S. Dohm, S. Ehlert, S. Ehrlich, I. Gerasimov, J. Koopman
   C. Lavigne, S. Lehtola, F. März, M. Müller, F. Musil, H. Neugebauer
   J. Pisarek, C. Plett, P. Pracht, J. Seibert, P. Shushkov, S. Spicher
   M. Stahn, M. Steiner, T. Strunk, J. Stückrath, T. Rose, and J. Unsleber
   
 * started run on 2021/11/15 at 09:23:10.903     

           -------------------------------------------------
          |                Calculation Setup                |
           -------------------------------------------------

          program call               : xtb 43_L-tyrosine.xyz --gfn2 --chrg 0 --uhf 0 --alpb water -P 1
          coordinate file            : 43_L-tyrosine.xyz
          omp threads                :                     1
          number of atoms            :                    24
          number of electrons        :                    70
          charge                     :                     0
          spin                       :                   0.0
          first test random number   :      0.12840112900086

   ID    Z sym.   atoms
    1    8 O      1-3
    2    7 N      4
    3    6 C      5-13
    4    1 H      14-24

           -------------------------------------------------
          |                 G F N 2 - x T B                 |
           -------------------------------------------------

        Reference                      10.1021/acs.jctc.8b01176
      * Hamiltonian:
        H0-scaling (s, p, d)           1.850000    2.230000    2.230000
        zeta-weighting                 0.500000
      * Dispersion:
        s8                             2.700000
        a1                             0.520000
        a2                             5.000000
        s9                             5.000000
      * Repulsion:
        kExp                           1.500000    1.000000
        rExp                           1.000000
      * Coulomb:
        alpha                          2.000000
        third order                    shell-resolved
        anisotropic                    true
        a3                             3.000000
        a5                             4.000000
        cn-shift                       1.200000
        cn-exp                         4.000000
        max-rad                        5.000000

      * Solvation model:               ALPB
        Solvent                        water
        Parameter file                 internal GFN2-xTB/ALPB
        Dielectric constant                8.0200E+01
        Reference state                gsolv [1 M gas/solution]
        Free energy shift                  1.0808E-03 Eh       6.7819E-01 kcal/mol
        Temperature                        2.9815E+02 K
        Density                            1.0000E+00 kg/L
        Solvent mass                       1.8000E+01 g/mol
        Interaction kernel             P16
        Born radius scaling (c1)           1.4744E+00
        Born radii integrator          GBOBC
        Born offset                        0.0000E+00 a0       0.0000E+00 AA
        H-bond correction              true
        Ion screening                  false
        Surface tension                    1.0000E-05 Eh       1.5569E+01 dyn/cm
        Grid points                               230 per atom
q/qsh data taken from xtbrestart
CAMM data taken from xtbrestart

          ...................................................
          :                      SETUP                      :
          :.................................................:
          :  # basis functions                  63          :
          :  # atomic orbitals                  63          :
          :  # shells                           37          :
          :  # electrons                        70          :
          :  max. iterations                   250          :
          :  Hamiltonian                  GFN2-xTB          :
          :  restarted?                       true          :
          :  GBSA solvation                   true          :
          :  PC potential                    false          :
          :  electronic temp.          300.0000000     K    :
          :  accuracy                    1.0000000          :
          :  -> integral cutoff          0.2500000E+02      :
          :  -> integral neglect         0.1000000E-07      :
          :  -> SCF convergence          0.1000000E-05 Eh   :
          :  -> wf. convergence          0.1000000E-03 e    :
          :  Broyden damping             0.4000000          :
          ...................................................

 iter      E             dE          RMSdq      gap      omega  full diag
   1    -40.5041281 -0.405041E+02  0.249E-04    4.07       0.0  T
   2    -40.5041281 -0.259817E-09  0.174E-04    4.07     117.6  T
   3    -40.5041281 -0.771863E-10  0.113E-04    4.07     180.9  T

   *** convergence criteria satisfied after 3 iterations ***

         #    Occupation            Energy/Eh            Energy/eV
      -------------------------------------------------------------
         1        2.0000           -0.7079279             -19.2637
       ...           ...                  ...                  ...
        29        2.0000           -0.4444715             -12.0947
        30        2.0000           -0.4233253             -11.5193
        31        2.0000           -0.4138597             -11.2617
        32        2.0000           -0.4076924             -11.0939
        33        2.0000           -0.4035166             -10.9802
        34        2.0000           -0.3867084             -10.5229
        35        2.0000           -0.3792387             -10.3196 (HOMO)
        36                         -0.2297483              -6.2518 (LUMO)
        37                         -0.2218140              -6.0359
        38                         -0.1931299              -5.2553
        39                         -0.0999267              -2.7191
        40                         -0.0533807              -1.4526
       ...                                ...                  ...
        63                          0.6330221              17.2254
      -------------------------------------------------------------
                  HL-Gap            0.1494904 Eh            4.0678 eV
             Fermi-level           -0.3044935 Eh           -8.2857 eV

 SCC (total)                   0 d,  0 h,  0 min,  0.014 sec
 SCC setup                      ...        0 min,  0.001 sec (  4.149%)
 Dispersion                     ...        0 min,  0.000 sec (  1.849%)
 classical contributions        ...        0 min,  0.000 sec (  0.216%)
 integral evaluation            ...        0 min,  0.004 sec ( 27.691%)
 iterations                     ...        0 min,  0.004 sec ( 26.722%)
 molecular gradient             ...        0 min,  0.005 sec ( 37.684%)
 printout                       ...        0 min,  0.000 sec (  1.515%)

         :::::::::::::::::::::::::::::::::::::::::::::::::::::
         ::                     SUMMARY                     ::
         :::::::::::::::::::::::::::::::::::::::::::::::::::::
         :: total energy             -40.017902114419 Eh    ::
         :: total w/o Gsasa/hb       -40.007286779097 Eh    ::
         :: gradient norm              0.044463392143 Eh/a0 ::
         :: HOMO-LUMO gap              4.067840509431 eV    ::
         ::.................................................::
         :: SCC energy               -40.504128145615 Eh    ::
         :: -> isotropic ES            0.200357449470 Eh    ::
         :: -> anisotropic ES         -0.010045772698 Eh    ::
         :: -> anisotropic XC          0.012081296992 Eh    ::
         :: -> dispersion             -0.020378867661 Eh    ::
         :: -> Gsolv                  -0.076117582454 Eh    ::
         ::    -> Gelec               -0.065502247132 Eh    ::
         ::    -> Gsasa                0.004109801723 Eh    ::
         ::    -> Ghb                 -0.015805896743 Eh    ::
         ::    -> Gshift               0.001080759698 Eh    ::
         :: repulsion energy           0.486165833709 Eh    ::
         :: add. restraining           0.000000000000 Eh    ::
         :: total charge              -0.000000000000 e     ::
         :::::::::::::::::::::::::::::::::::::::::::::::::::::

           -------------------------------------------------
          |                Property Printout                |
           -------------------------------------------------

    * Orbital Energies and Occupations

         #    Occupation            Energy/Eh            Energy/eV
      -------------------------------------------------------------
         1        2.0000           -0.7079279             -19.2637
       ...           ...                  ...                  ...
        23        2.0000           -0.4918710             -13.3845
        24        2.0000           -0.4850304             -13.1983
        25        2.0000           -0.4812901             -13.0966
        26        2.0000           -0.4780718             -13.0090
        27        2.0000           -0.4541570             -12.3582
        28        2.0000           -0.4538326             -12.3494
        29        2.0000           -0.4444715             -12.0947
        30        2.0000           -0.4233253             -11.5193
        31        2.0000           -0.4138597             -11.2617
        32        2.0000           -0.4076924             -11.0939
        33        2.0000           -0.4035166             -10.9802
        34        2.0000           -0.3867084             -10.5229
        35        2.0000           -0.3792387             -10.3196 (HOMO)
        36                         -0.2297483              -6.2518 (LUMO)
        37                         -0.2218140              -6.0359
        38                         -0.1931299              -5.2553
        39                         -0.0999267              -2.7191
        40                         -0.0533807              -1.4526
        41                          0.0435415               1.1848
        42                          0.0560034               1.5239
        43                          0.0696924               1.8964
        44                          0.0968117               2.6344
        45                          0.1097989               2.9878
        46                          0.1148053               3.1240
       ...                                ...                  ...
        63                          0.6330221              17.2254
      -------------------------------------------------------------
                  HL-Gap            0.1494904 Eh            4.0678 eV
             Fermi-level           -0.3044935 Eh           -8.2857 eV

     #   Z          covCN         q      C6AA      α(0)
     1   8 O        0.856    -0.621    26.640     6.920
     2   8 O        1.659    -0.464    22.126     6.350
     3   8 O        0.856    -0.621    26.631     6.919
     4   7 N        3.483    -0.181    24.915     7.413
     5   6 C        3.805    -0.072    21.877     6.659
     6   6 C        3.776    -0.007    20.723     6.486
     7   6 C        2.959    -0.002    28.076     8.691
     8   6 C        2.919    -0.042    29.038     8.837
     9   6 C        2.919    -0.049    29.206     8.862
    10   6 C        2.911    -0.059    29.461     8.900
    11   6 C        2.910    -0.075    29.872     8.962
    12   6 C        2.686     0.364    20.823     7.468
    13   6 C        2.842     0.143    24.884     8.175
    14   1 H        0.924     0.069     2.098     2.265
    15   1 H        0.924     0.061     2.192     2.316
    16   1 H        0.924     0.087     1.908     2.160
    17   1 H        0.925     0.042     2.428     2.437
    18   1 H        0.925     0.051     2.306     2.375
    19   1 H        0.925     0.050     2.324     2.384
    20   1 H        0.859     0.293     0.733     1.341
    21   1 H        0.857     0.307     0.694     1.305
    22   1 H        0.805     0.371     0.542     1.156
    23   1 H        0.860     0.307     0.693     1.304
    24   1 H        0.925     0.048     2.344     2.394

 Mol. C6AA /au·bohr⁶  :       6283.055426
 Mol. C8AA /au·bohr⁸  :     147231.757964
 Mol. α(0) /au        :        122.079406


Wiberg/Mayer (AO) data.
largest (>0.10) Wiberg bond orders for each atom

 ---------------------------------------------------------------------------
     #   Z sym  total        # sym  WBO       # sym  WBO       # sym  WBO
 ---------------------------------------------------------------------------
     1   8 O    1.836 --    12 C    1.536     3 O    0.219
     2   8 O    2.070 --    13 C    1.069    22 H    0.843
     3   8 O    1.846 --    12 C    1.470     1 O    0.219
     4   7 N    3.639 --     6 C    0.953    23 H    0.896    20 H    0.896
                            21 H    0.835
     5   6 C    3.986 --     7 C    1.007     6 C    0.980    15 H    0.971
                            14 H    0.959
     6   6 C    3.930 --     5 C    0.980    16 H    0.957     4 N    0.953
                            12 C    0.900
     7   6 C    3.986 --     9 C    1.416     8 C    1.394     5 C    1.007
     8   6 C    3.990 --    10 C    1.467     7 C    1.394    17 H    0.969
                            11 C    0.106
     9   6 C    3.988 --    11 C    1.440     7 C    1.416    18 H    0.966
                            10 C    0.106
    10   6 C    3.988 --     8 C    1.467    13 C    1.359    24 H    0.968
                             9 C    0.106
    11   6 C    3.985 --     9 C    1.440    13 C    1.379    19 H    0.965
                             8 C    0.106
    12   6 C    3.935 --     1 O    1.536     3 O    1.470     6 C    0.900
    13   6 C    3.936 --    11 C    1.379    10 C    1.359     2 O    1.069
    14   1 H    0.995 --     5 C    0.959
    15   1 H    0.996 --     5 C    0.971
    16   1 H    0.992 --     6 C    0.957
    17   1 H    0.998 --     8 C    0.969
    18   1 H    0.997 --     9 C    0.966
    19   1 H    0.997 --    11 C    0.965
    20   1 H    0.914 --     4 N    0.896
    21   1 H    0.906 --     4 N    0.835
    22   1 H    0.862 --     2 O    0.843
    23   1 H    0.906 --     4 N    0.896
    24   1 H    0.997 --    10 C    0.968
 ---------------------------------------------------------------------------

Topologies differ in total number of bonds
Writing topology from bond orders to xtbtopo.mol

molecular dipole:
                 x           y           z       tot (Debye)
 q only:        4.270      -3.140       1.415
   full:        4.433      -3.256       1.410      14.432
molecular quadrupole (traceless):
                xx          xy          yy          xz          yz          zz
 q only:      -44.450       6.182      22.279     -13.017      -2.971      22.171
  q+dip:      -45.515       4.100      23.405     -13.640       0.392      22.109
   full:      -46.499       4.244      22.778     -14.563      -1.328      23.721


           -------------------------------------------------
          | TOTAL ENERGY              -40.017902114419 Eh   |
          | GRADIENT NORM               0.044463392143 Eh/α |
          | HOMO-LUMO GAP               4.067840509431 eV   |
           -------------------------------------------------

------------------------------------------------------------------------
 * finished run on 2021/11/15 at 09:23:10.941     
------------------------------------------------------------------------
 total:
 * wall-time:     0 d,  0 h,  0 min,  0.037 sec
 *  cpu-time:     0 d,  0 h,  0 min,  0.031 sec
 * ratio c/w:     0.833 speedup
 SCF:
 * wall-time:     0 d,  0 h,  0 min,  0.015 sec
 *  cpu-time:     0 d,  0 h,  0 min,  0.016 sec
 * ratio c/w:     1.070 speedup

