      -----------------------------------------------------------      
     |                   =====================                   |     
     |                           x T B                           |     
     |                   =====================                   |     
     |                         S. Grimme                         |     
     |          Mulliken Center for Theoretical Chemistry        |     
     |                    University of Bonn                     |     
      -----------------------------------------------------------      

   * xtb version 6.4.1 (afa7bdf) compiled by 'ehlert@majestix' on 2021-06-10

   xtb is free software: you can redistribute it and/or modify it under
   the terms of the GNU Lesser General Public License as published by
   the Free Software Foundation, either version 3 of the License, or
   (at your option) any later version.
   
   xtb is distributed in the hope that it will be useful,
   but WITHOUT ANY WARRANTY; without even the implied warranty of
   MERCHANTABILITY or FITNESS FOR A PARTICULAR PURPOSE.  See the
   GNU Lesser General Public License for more details.
   
   Cite this work as:
   * C. Bannwarth, E. Caldeweyher, S. Ehlert, A. Hansen, P. Pracht,
     J. Seibert, S. Spicher, S. Grimme, WIREs Comput. Mol. Sci., 2020, 11,
     e01493. DOI: 10.1002/wcms.1493
   
   for GFN2-xTB:
   * C. Bannwarth, S. Ehlert and S. Grimme., J. Chem. Theory Comput., 2019,
     15, 1652-1671. DOI: 10.1021/acs.jctc.8b01176
   for GFN1-xTB:
   * S. Grimme, C. Bannwarth, P. Shushkov, J. Chem. Theory Comput., 2017,
     13, 1989-2009. DOI: 10.1021/acs.jctc.7b00118
   for GFN0-xTB:
   * P. Pracht, E. Caldeweyher, S. Ehlert, S. Grimme, ChemRxiv, 2019, preprint.
     DOI: 10.26434/chemrxiv.8326202.v1
   for GFN-FF:
   * S. Spicher and S. Grimme, Angew. Chem. Int. Ed., 2020, 59, 15665-15673.
     DOI: 10.1002/anie.202004239
   
   for DFT-D4:
   * E. Caldeweyher, C. Bannwarth and S. Grimme, J. Chem. Phys., 2017,
     147, 034112. DOI: 10.1063/1.4993215
   * E. Caldeweyher, S. Ehlert, A. Hansen, H. Neugebauer, S. Spicher,
     C. Bannwarth and S. Grimme, J. Chem. Phys., 2019, 150, 154122.
     DOI: 10.1063/1.5090222
   * E. Caldeweyher, J.-M. Mewes, S. Ehlert and S. Grimme, Phys. Chem. Chem. Phys.
     2020, 22, 8499-8512. DOI: 10.1039/D0CP00502A
   
   for sTDA-xTB:
   * S. Grimme and C. Bannwarth, J. Chem. Phys., 2016, 145, 054103.
     DOI: 10.1063/1.4959605
   
   in the mass-spec context:
   * V. Asgeirsson, C. Bauer and S. Grimme, Chem. Sci., 2017, 8, 4879.
     DOI: 10.1039/c7sc00601b
   * J. Koopman and S. Grimme, ACS Omega 2019, 4, 12, 15120-15133.
     DOI: 10.1021/acsomega.9b02011
   
   for metadynamics refer to:
   * S. Grimme, J. Chem. Theory Comput., 2019, 155, 2847-2862
     DOI: 10.1021/acs.jctc.9b00143
   
   for SPH calculations refer to:
   * S. Spicher and S. Grimme, J. Chem. Theory Comput., 2021, 17, 1701-1714
     DOI: 10.1021/acs.jctc.0c01306
   
   with help from (in alphabetical order)
   P. Atkinson, C. Bannwarth, F. Bohle, G. Brandenburg, E. Caldeweyher
   M. Checinski, S. Dohm, S. Ehlert, S. Ehrlich, I. Gerasimov, J. Koopman
   C. Lavigne, S. Lehtola, F. März, M. Müller, F. Musil, H. Neugebauer
   J. Pisarek, C. Plett, P. Pracht, J. Seibert, P. Shushkov, S. Spicher
   M. Stahn, M. Steiner, T. Strunk, J. Stückrath, T. Rose, and J. Unsleber
   
 * started run on 2021/11/15 at 09:23:09.820     

           -------------------------------------------------
          |                Calculation Setup                |
           -------------------------------------------------

          program call               : xtb 32_1,2,3-trimethoxybenzene.xyz --gfn2 --chrg 0 --uhf 0 --alpb water -P 1
          coordinate file            : 32_1,2,3-trimethoxybenzene.xyz
          omp threads                :                     1
          number of atoms            :                    24
          number of electrons        :                    66
          charge                     :                     0
          spin                       :                   0.0
          first test random number   :      0.77641364792136

   ID    Z sym.   atoms
    1    6 C      1-6, 10, 16, 21
    2    1 H      7, 8, 11-14, 17-19, 22-24
    3    8 O      9, 15, 20

           -------------------------------------------------
          |                 G F N 2 - x T B                 |
           -------------------------------------------------

        Reference                      10.1021/acs.jctc.8b01176
      * Hamiltonian:
        H0-scaling (s, p, d)           1.850000    2.230000    2.230000
        zeta-weighting                 0.500000
      * Dispersion:
        s8                             2.700000
        a1                             0.520000
        a2                             5.000000
        s9                             5.000000
      * Repulsion:
        kExp                           1.500000    1.000000
        rExp                           1.000000
      * Coulomb:
        alpha                          2.000000
        third order                    shell-resolved
        anisotropic                    true
        a3                             3.000000
        a5                             4.000000
        cn-shift                       1.200000
        cn-exp                         4.000000
        max-rad                        5.000000

      * Solvation model:               ALPB
        Solvent                        water
        Parameter file                 internal GFN2-xTB/ALPB
        Dielectric constant                8.0200E+01
        Reference state                gsolv [1 M gas/solution]
        Free energy shift                  1.0808E-03 Eh       6.7819E-01 kcal/mol
        Temperature                        2.9815E+02 K
        Density                            1.0000E+00 kg/L
        Solvent mass                       1.8000E+01 g/mol
        Interaction kernel             P16
        Born radius scaling (c1)           1.4744E+00
        Born radii integrator          GBOBC
        Born offset                        0.0000E+00 a0       0.0000E+00 AA
        H-bond correction              true
        Ion screening                  false
        Surface tension                    1.0000E-05 Eh       1.5569E+01 dyn/cm
        Grid points                               230 per atom
q/qsh data taken from xtbrestart
CAMM data taken from xtbrestart

          ...................................................
          :                      SETUP                      :
          :.................................................:
          :  # basis functions                  60          :
          :  # atomic orbitals                  60          :
          :  # shells                           36          :
          :  # electrons                        66          :
          :  max. iterations                   250          :
          :  Hamiltonian                  GFN2-xTB          :
          :  restarted?                       true          :
          :  GBSA solvation                   true          :
          :  PC potential                    false          :
          :  electronic temp.          300.0000000     K    :
          :  accuracy                    1.0000000          :
          :  -> integral cutoff          0.2500000E+02      :
          :  -> integral neglect         0.1000000E-07      :
          :  -> SCF convergence          0.1000000E-05 Eh   :
          :  -> wf. convergence          0.1000000E-03 e    :
          :  Broyden damping             0.4000000          :
          ...................................................

 iter      E             dE          RMSdq      gap      omega  full diag
   1    -38.0134435 -0.380134E+02  0.655E-05    4.19       0.0  T
   2    -38.0134435 -0.177209E-10  0.447E-05    4.19     457.0  T
   3    -38.0134435 -0.581935E-11  0.305E-05    4.19     668.8  T

   *** convergence criteria satisfied after 3 iterations ***

         #    Occupation            Energy/Eh            Energy/eV
      -------------------------------------------------------------
         1        2.0000           -0.7191032             -19.5678
       ...           ...                  ...                  ...
        27        2.0000           -0.4606182             -12.5341
        28        2.0000           -0.4514263             -12.2839
        29        2.0000           -0.4382584             -11.9256
        30        2.0000           -0.4316597             -11.7461
        31        2.0000           -0.4016073             -10.9283
        32        2.0000           -0.3833533             -10.4316
        33        2.0000           -0.3813930             -10.3782 (HOMO)
        34                         -0.2275096              -6.1909 (LUMO)
        35                         -0.2163232              -5.8865
        36                         -0.0993558              -2.7036
        37                         -0.0062285              -0.1695
        38                          0.0296341               0.8064
       ...                                ...                  ...
        60                          0.6360761              17.3085
      -------------------------------------------------------------
                  HL-Gap            0.1538834 Eh            4.1874 eV
             Fermi-level           -0.3044513 Eh           -8.2845 eV

 SCC (total)                   0 d,  0 h,  0 min,  0.014 sec
 SCC setup                      ...        0 min,  0.001 sec (  5.724%)
 Dispersion                     ...        0 min,  0.000 sec (  1.952%)
 classical contributions        ...        0 min,  0.000 sec (  0.279%)
 integral evaluation            ...        0 min,  0.003 sec ( 23.629%)
 iterations                     ...        0 min,  0.003 sec ( 22.099%)
 molecular gradient             ...        0 min,  0.006 sec ( 43.626%)
 printout                       ...        0 min,  0.000 sec (  1.358%)

         :::::::::::::::::::::::::::::::::::::::::::::::::::::
         ::                     SUMMARY                     ::
         :::::::::::::::::::::::::::::::::::::::::::::::::::::
         :: total energy             -37.571559833126 Eh    ::
         :: total w/o Gsasa/hb       -37.570831408376 Eh    ::
         :: gradient norm              0.023823225951 Eh/a0 ::
         :: HOMO-LUMO gap              4.187380250721 eV    ::
         ::.................................................::
         :: SCC energy               -38.013443474202 Eh    ::
         :: -> isotropic ES            0.060568349454 Eh    ::
         :: -> anisotropic ES          0.004757816123 Eh    ::
         :: -> anisotropic XC          0.007837288996 Eh    ::
         :: -> dispersion             -0.019522125866 Eh    ::
         :: -> Gsolv                  -0.011466270212 Eh    ::
         ::    -> Gelec               -0.010737845462 Eh    ::
         ::    -> Gsasa                0.000187823135 Eh    ::
         ::    -> Ghb                 -0.001997007583 Eh    ::
         ::    -> Gshift               0.001080759698 Eh    ::
         :: repulsion energy           0.441791020667 Eh    ::
         :: add. restraining           0.000000000000 Eh    ::
         :: total charge              -0.000000000000 e     ::
         :::::::::::::::::::::::::::::::::::::::::::::::::::::

           -------------------------------------------------
          |                Property Printout                |
           -------------------------------------------------

    * Orbital Energies and Occupations

         #    Occupation            Energy/Eh            Energy/eV
      -------------------------------------------------------------
         1        2.0000           -0.7191032             -19.5678
       ...           ...                  ...                  ...
        21        2.0000           -0.5032946             -13.6953
        22        2.0000           -0.4831419             -13.1470
        23        2.0000           -0.4812906             -13.0966
        24        2.0000           -0.4778457             -13.0028
        25        2.0000           -0.4644774             -12.6391
        26        2.0000           -0.4612650             -12.5517
        27        2.0000           -0.4606182             -12.5341
        28        2.0000           -0.4514263             -12.2839
        29        2.0000           -0.4382584             -11.9256
        30        2.0000           -0.4316597             -11.7461
        31        2.0000           -0.4016073             -10.9283
        32        2.0000           -0.3833533             -10.4316
        33        2.0000           -0.3813930             -10.3782 (HOMO)
        34                         -0.2275096              -6.1909 (LUMO)
        35                         -0.2163232              -5.8865
        36                         -0.0993558              -2.7036
        37                         -0.0062285              -0.1695
        38                          0.0296341               0.8064
        39                          0.0379275               1.0321
        40                          0.0985700               2.6822
        41                          0.1072490               2.9184
        42                          0.1230228               3.3476
        43                          0.1256848               3.4201
        44                          0.1331273               3.6226
       ...                                ...                  ...
        60                          0.6360761              17.3085
      -------------------------------------------------------------
                  HL-Gap            0.1538834 Eh            4.1874 eV
             Fermi-level           -0.3044513 Eh           -8.2845 eV

     #   Z          covCN         q      C6AA      α(0)
     1   6 C        2.909    -0.087    30.183     9.009
     2   6 C        2.860     0.121    25.340     8.251
     3   6 C        2.867     0.086    26.082     8.372
     4   6 C        2.859     0.121    25.340     8.251
     5   6 C        2.909    -0.087    30.183     9.009
     6   6 C        2.917    -0.045    29.127     8.850
     7   1 H        0.925     0.061     2.184     2.311
     8   1 H        0.925     0.061     2.183     2.310
     9   8 O        1.703    -0.294    18.885     5.867
    10   6 C        3.640     0.018    20.636     6.533
    11   1 H        0.924     0.060     2.205     2.322
    12   1 H        0.924     0.084     1.943     2.180
    13   1 H        0.924     0.059     2.214     2.327
    14   1 H        0.925     0.061     2.184     2.311
    15   8 O        1.703    -0.294    18.885     5.867
    16   6 C        3.640     0.018    20.635     6.533
    17   1 H        0.924     0.084     1.943     2.180
    18   1 H        0.924     0.059     2.205     2.322
    19   1 H        0.924     0.059     2.214     2.327
    20   8 O        1.700    -0.339    19.684     5.990
    21   6 C        3.647     0.033    20.348     6.482
    22   1 H        0.924     0.044     2.391     2.418
    23   1 H        0.924     0.074     2.047     2.237
    24   1 H        0.924     0.044     2.391     2.418

 Mol. C6AA /au·bohr⁶  :       5742.299319
 Mol. C8AA /au·bohr⁸  :     131360.204303
 Mol. α(0) /au        :        116.677871


Wiberg/Mayer (AO) data.
largest (>0.10) Wiberg bond orders for each atom

 ---------------------------------------------------------------------------
     #   Z sym  total        # sym  WBO       # sym  WBO       # sym  WBO
 ---------------------------------------------------------------------------
     1   6 C    3.980 --     6 C    1.440     2 C    1.359    14 H    0.963
     2   6 C    3.936 --     1 C    1.359     3 C    1.331    15 O    1.067
     3   6 C    3.932 --     4 C    1.331     2 C    1.331    20 O    1.003
     4   6 C    3.936 --     5 C    1.359     3 C    1.331     9 O    1.066
     5   6 C    3.980 --     6 C    1.440     4 C    1.359     7 H    0.963
     6   6 C    3.988 --     5 C    1.440     1 C    1.440     8 H    0.969
     7   1 H    0.996 --     5 C    0.963
     8   1 H    0.996 --     6 C    0.969
     9   8 O    2.215 --     4 C    1.066    10 C    0.966
    10   6 C    3.925 --    12 H    0.978    13 H    0.977    11 H    0.976
                             9 O    0.966
    11   1 H    0.996 --    10 C    0.976
    12   1 H    0.993 --    10 C    0.978
    13   1 H    0.996 --    10 C    0.977
    14   1 H    0.996 --     1 C    0.963
    15   8 O    2.215 --     2 C    1.067    16 C    0.966
    16   6 C    3.925 --    17 H    0.978    19 H    0.977    18 H    0.976
                            15 O    0.966
    17   1 H    0.993 --    16 C    0.978
    18   1 H    0.996 --    16 C    0.976
    19   1 H    0.996 --    16 C    0.977
    20   8 O    2.077 --     3 C    1.003    21 C    0.954
    21   6 C    3.936 --    24 H    0.981    22 H    0.981    23 H    0.979
                            20 O    0.954
    22   1 H    0.998 --    21 C    0.981
    23   1 H    0.994 --    21 C    0.979
    24   1 H    0.998 --    21 C    0.981
 ---------------------------------------------------------------------------

Topologies differ in total number of bonds
Writing topology from bond orders to xtbtopo.mol

molecular dipole:
                 x           y           z       tot (Debye)
 q only:       -0.000      -0.974       0.733
   full:       -0.000      -1.126       0.839       3.570
molecular quadrupole (traceless):
                xx          xy          yy          xz          yz          zz
 q only:       12.969      -0.003      -3.611      -0.009       3.684      -9.357
  q+dip:       13.182      -0.002      -3.400      -0.006       3.437      -9.782
   full:       12.843      -0.002      -4.396      -0.008       4.254      -8.447


           -------------------------------------------------
          | TOTAL ENERGY              -37.571559833126 Eh   |
          | GRADIENT NORM               0.023823225951 Eh/α |
          | HOMO-LUMO GAP               4.187380250721 eV   |
           -------------------------------------------------

------------------------------------------------------------------------
 * finished run on 2021/11/15 at 09:23:09.858     
------------------------------------------------------------------------
 total:
 * wall-time:     0 d,  0 h,  0 min,  0.038 sec
 *  cpu-time:     0 d,  0 h,  0 min,  0.016 sec
 * ratio c/w:     0.412 speedup
 SCF:
 * wall-time:     0 d,  0 h,  0 min,  0.014 sec
 *  cpu-time:     0 d,  0 h,  0 min,  0.016 sec
 * ratio c/w:     1.094 speedup

