      -----------------------------------------------------------      
     |                   =====================                   |     
     |                           x T B                           |     
     |                   =====================                   |     
     |                         S. Grimme                         |     
     |          Mulliken Center for Theoretical Chemistry        |     
     |                    University of Bonn                     |     
      -----------------------------------------------------------      

   * xtb version 6.4.1 (afa7bdf) compiled by 'ehlert@majestix' on 2021-06-10

   xtb is free software: you can redistribute it and/or modify it under
   the terms of the GNU Lesser General Public License as published by
   the Free Software Foundation, either version 3 of the License, or
   (at your option) any later version.
   
   xtb is distributed in the hope that it will be useful,
   but WITHOUT ANY WARRANTY; without even the implied warranty of
   MERCHANTABILITY or FITNESS FOR A PARTICULAR PURPOSE.  See the
   GNU Lesser General Public License for more details.
   
   Cite this work as:
   * C. Bannwarth, E. Caldeweyher, S. Ehlert, A. Hansen, P. Pracht,
     J. Seibert, S. Spicher, S. Grimme, WIREs Comput. Mol. Sci., 2020, 11,
     e01493. DOI: 10.1002/wcms.1493
   
   for GFN2-xTB:
   * C. Bannwarth, S. Ehlert and S. Grimme., J. Chem. Theory Comput., 2019,
     15, 1652-1671. DOI: 10.1021/acs.jctc.8b01176
   for GFN1-xTB:
   * S. Grimme, C. Bannwarth, P. Shushkov, J. Chem. Theory Comput., 2017,
     13, 1989-2009. DOI: 10.1021/acs.jctc.7b00118
   for GFN0-xTB:
   * P. Pracht, E. Caldeweyher, S. Ehlert, S. Grimme, ChemRxiv, 2019, preprint.
     DOI: 10.26434/chemrxiv.8326202.v1
   for GFN-FF:
   * S. Spicher and S. Grimme, Angew. Chem. Int. Ed., 2020, 59, 15665-15673.
     DOI: 10.1002/anie.202004239
   
   for DFT-D4:
   * E. Caldeweyher, C. Bannwarth and S. Grimme, J. Chem. Phys., 2017,
     147, 034112. DOI: 10.1063/1.4993215
   * E. Caldeweyher, S. Ehlert, A. Hansen, H. Neugebauer, S. Spicher,
     C. Bannwarth and S. Grimme, J. Chem. Phys., 2019, 150, 154122.
     DOI: 10.1063/1.5090222
   * E. Caldeweyher, J.-M. Mewes, S. Ehlert and S. Grimme, Phys. Chem. Chem. Phys.
     2020, 22, 8499-8512. DOI: 10.1039/D0CP00502A
   
   for sTDA-xTB:
   * S. Grimme and C. Bannwarth, J. Chem. Phys., 2016, 145, 054103.
     DOI: 10.1063/1.4959605
   
   in the mass-spec context:
   * V. Asgeirsson, C. Bauer and S. Grimme, Chem. Sci., 2017, 8, 4879.
     DOI: 10.1039/c7sc00601b
   * J. Koopman and S. Grimme, ACS Omega 2019, 4, 12, 15120-15133.
     DOI: 10.1021/acsomega.9b02011
   
   for metadynamics refer to:
   * S. Grimme, J. Chem. Theory Comput., 2019, 155, 2847-2862
     DOI: 10.1021/acs.jctc.9b00143
   
   for SPH calculations refer to:
   * S. Spicher and S. Grimme, J. Chem. Theory Comput., 2021, 17, 1701-1714
     DOI: 10.1021/acs.jctc.0c01306
   
   with help from (in alphabetical order)
   P. Atkinson, C. Bannwarth, F. Bohle, G. Brandenburg, E. Caldeweyher
   M. Checinski, S. Dohm, S. Ehlert, S. Ehrlich, I. Gerasimov, J. Koopman
   C. Lavigne, S. Lehtola, F. März, M. Müller, F. Musil, H. Neugebauer
   J. Pisarek, C. Plett, P. Pracht, J. Seibert, P. Shushkov, S. Spicher
   M. Stahn, M. Steiner, T. Strunk, J. Stückrath, T. Rose, and J. Unsleber
   
 * started run on 2021/11/15 at 09:36:20.181     

           -------------------------------------------------
          |                Calculation Setup                |
           -------------------------------------------------

          program call               : xtb 31_n-methylaniline.xyz --gfn2 --chrg 0 --uhf 0 --alpb water --ohess -P 1
          coordinate file            : 31_n-methylaniline.xyz
          omp threads                :                     1
          number of atoms            :                    17
          number of electrons        :                    42
          charge                     :                     0
          spin                       :                   0.0
          first test random number   :      0.35628897104625

   ID    Z sym.   atoms
    1    6 C      1-6, 14
    2    1 H      7-11, 13, 15-17
    3    7 N      12

           -------------------------------------------------
          |                 G F N 2 - x T B                 |
           -------------------------------------------------

        Reference                      10.1021/acs.jctc.8b01176
      * Hamiltonian:
        H0-scaling (s, p, d)           1.850000    2.230000    2.230000
        zeta-weighting                 0.500000
      * Dispersion:
        s8                             2.700000
        a1                             0.520000
        a2                             5.000000
        s9                             5.000000
      * Repulsion:
        kExp                           1.500000    1.000000
        rExp                           1.000000
      * Coulomb:
        alpha                          2.000000
        third order                    shell-resolved
        anisotropic                    true
        a3                             3.000000
        a5                             4.000000
        cn-shift                       1.200000
        cn-exp                         4.000000
        max-rad                        5.000000

      * Solvation model:               ALPB
        Solvent                        water
        Parameter file                 internal GFN2-xTB/ALPB
        Dielectric constant                8.0200E+01
        Reference state                gsolv [1 M gas/solution]
        Free energy shift                  1.0808E-03 Eh       6.7819E-01 kcal/mol
        Temperature                        2.9815E+02 K
        Density                            1.0000E+00 kg/L
        Solvent mass                       1.8000E+01 g/mol
        Interaction kernel             P16
        Born radius scaling (c1)           1.4744E+00
        Born radii integrator          GBOBC
        Born offset                        0.0000E+00 a0       0.0000E+00 AA
        H-bond correction              true
        Ion screening                  false
        Surface tension                    1.0000E-05 Eh       1.5569E+01 dyn/cm
        Grid points                               230 per atom

          ...................................................
          :                      SETUP                      :
          :.................................................:
          :  # basis functions                  41          :
          :  # atomic orbitals                  41          :
          :  # shells                           25          :
          :  # electrons                        42          :
          :  max. iterations                   250          :
          :  Hamiltonian                  GFN2-xTB          :
          :  restarted?                      false          :
          :  GBSA solvation                   true          :
          :  PC potential                    false          :
          :  electronic temp.          300.0000000     K    :
          :  accuracy                    1.0000000          :
          :  -> integral cutoff          0.2500000E+02      :
          :  -> integral neglect         0.1000000E-07      :
          :  -> SCF convergence          0.1000000E-05 Eh   :
          :  -> wf. convergence          0.1000000E-03 e    :
          :  Broyden damping             0.4000000          :
          ...................................................

 iter      E             dE          RMSdq      gap      omega  full diag
   1    -22.8448444 -0.228448E+02  0.401E+00    3.34       0.0  T
   2    -22.8570626 -0.122182E-01  0.249E+00    3.68       1.0  T
   3    -22.8531041  0.395847E-02  0.949E-01    3.71       1.0  T
   4    -22.8591438 -0.603966E-02  0.207E-01    3.66       1.0  T
   5    -22.8594253 -0.281521E-03  0.652E-02    3.67       1.0  T
   6    -22.8594329 -0.758145E-05  0.303E-02    3.68       1.0  T
   7    -22.8594375 -0.468814E-05  0.134E-02    3.67       1.8  T
   8    -22.8594378 -0.274778E-06  0.222E-03    3.67      10.9  T
   9    -22.8594378 -0.841852E-08  0.128E-03    3.67      18.9  T
  10    -22.8594378 -0.420666E-08  0.560E-04    3.67      43.3  T
  11    -22.8594378 -0.158234E-08  0.197E-04    3.67     123.2  T

   *** convergence criteria satisfied after 11 iterations ***

         #    Occupation            Energy/Eh            Energy/eV
      -------------------------------------------------------------
         1        2.0000           -0.6418125             -17.4646
       ...           ...                  ...                  ...
        15        2.0000           -0.4647984             -12.6478
        16        2.0000           -0.4534454             -12.3389
        17        2.0000           -0.4268002             -11.6138
        18        2.0000           -0.4164974             -11.3335
        19        2.0000           -0.4124209             -11.2225
        20        2.0000           -0.3922651             -10.6741
        21        2.0000           -0.3489193              -9.4946 (HOMO)
        22                         -0.2139319              -5.8214 (LUMO)
        23                         -0.2029259              -5.5219
        24                         -0.0841859              -2.2908
        25                          0.0305348               0.8309
        26                          0.1106699               3.0115
       ...                                ...                  ...
        41                          0.6502488              17.6942
      -------------------------------------------------------------
                  HL-Gap            0.1349874 Eh            3.6732 eV
             Fermi-level           -0.2814256 Eh           -7.6580 eV

 SCC (total)                   0 d,  0 h,  0 min,  0.009 sec
 SCC setup                      ...        0 min,  0.000 sec (  4.828%)
 Dispersion                     ...        0 min,  0.000 sec (  1.342%)
 classical contributions        ...        0 min,  0.000 sec (  0.246%)
 integral evaluation            ...        0 min,  0.001 sec ( 15.364%)
 iterations                     ...        0 min,  0.004 sec ( 45.592%)
 molecular gradient             ...        0 min,  0.003 sec ( 30.765%)
 printout                       ...        0 min,  0.000 sec (  1.658%)

         :::::::::::::::::::::::::::::::::::::::::::::::::::::
         ::                     SUMMARY                     ::
         :::::::::::::::::::::::::::::::::::::::::::::::::::::
         :: total energy             -22.483910868839 Eh    ::
         :: total w/o Gsasa/hb       -22.481427647337 Eh    ::
         :: gradient norm              0.020200670122 Eh/a0 ::
         :: HOMO-LUMO gap              3.673194487144 eV    ::
         ::.................................................::
         :: SCC energy               -22.859437831037 Eh    ::
         :: -> isotropic ES            0.009621081195 Eh    ::
         :: -> anisotropic ES          0.006649238905 Eh    ::
         :: -> anisotropic XC          0.015805977354 Eh    ::
         :: -> dispersion             -0.012532691004 Eh    ::
         :: -> Gsolv                  -0.004388156250 Eh    ::
         ::    -> Gelec               -0.001904934748 Eh    ::
         ::    -> Gsasa               -0.002207554101 Eh    ::
         ::    -> Ghb                 -0.001356427098 Eh    ::
         ::    -> Gshift               0.001080759698 Eh    ::
         :: repulsion energy           0.375508732823 Eh    ::
         :: add. restraining           0.000000000000 Eh    ::
         :: total charge              -0.000000000000 e     ::
         :::::::::::::::::::::::::::::::::::::::::::::::::::::

      ----------------------------------------------------------- 
     |                   =====================                   |
     |                        A N C O P T                        |
     |                   =====================                   |
     |               Approximate Normal Coordinate               |
     |                Rational Function Optimizer                |
      ----------------------------------------------------------- 

          ...................................................
          :                      SETUP                      :
          :.................................................:
          :   optimization level            normal          :
          :   max. optcycles                   200          :
          :   ANC micro-cycles                  20          :
          :   degrees of freedom                45          :
          :.................................................:
          :   RF solver                   davidson          :
          :   write xtbopt.log                true          :
          :   linear?                        false          :
          :   energy convergence         0.5000000E-05 Eh   :
          :   grad. convergence          0.1000000E-02 Eh/α :
          :   maximium RF displ.         1.0000000          :
          :   Hlow (freq-cutoff)         0.1000000E-01      :
          :   Hmax (freq-cutoff)         5.0000000          :
          :   S6 in model hess.         20.0000000          :
          ...................................................

generating ANC from model Hessian ...
Using Lindh-Hessian (1995)
 Shifting diagonal of input Hessian by   6.806891128163740E-003
 Lowest  eigenvalues of input Hessian
    0.000000    0.000000    0.000000    0.000000    0.000000    0.000000
    0.010000    0.012096    0.015339    0.020015    0.021433    0.029332
    0.032423    0.040283    0.059033    0.066454    0.073544    0.075480
 Highest eigenvalues
    1.457859    1.603589    1.744798    1.853693    1.954082    2.042086
 

........................................................................
.............................. CYCLE    1 ..............................
........................................................................
   1    -22.8594378 -0.228594E+02  0.527E-05    3.67       0.0  T
   2    -22.8594378 -0.139195E-10  0.326E-05    3.67     742.9  T
   3    -22.8594378 -0.504841E-11  0.215E-05    3.67    1128.1  T
     SCC iter.                  ...        0 min,  0.002 sec
     gradient                   ...        0 min,  0.003 sec
 * total energy  :   -22.4839109 Eh     change       -0.8664003E-10 Eh
   gradient norm :     0.0202013 Eh/α   predicted     0.0000000E+00 (-100.00%)
   displ. norm   :     0.1082627 α      lambda       -0.1584877E-02
   maximum displ.:     0.0552483 α      in ANC's #8, #26, #24, ...

........................................................................
.............................. CYCLE    2 ..............................
........................................................................
   1    -22.8762450 -0.228762E+02  0.119E-01    3.72       0.0  T
   2    -22.8762498 -0.482184E-05  0.700E-02    3.72       1.0  T
   3    -22.8762453  0.450039E-05  0.277E-02    3.72       1.0  T
   4    -22.8762515 -0.625786E-05  0.336E-03    3.72       7.2  T
   5    -22.8762516 -0.245003E-07  0.186E-03    3.72      13.1  T
   6    -22.8762516 -0.807287E-08  0.894E-04    3.72      27.1  T
   7    -22.8762516 -0.293601E-08  0.326E-04    3.72      74.4  T
     SCC iter.                  ...        0 min,  0.003 sec
     gradient                   ...        0 min,  0.003 sec
 * total energy  :   -22.4848576 Eh     change       -0.9467808E-03 Eh
   gradient norm :     0.0055359 Eh/α   predicted    -0.8017261E-03 ( -15.32%)
   displ. norm   :     0.0504704 α      lambda       -0.1377602E-03
   maximum displ.:     0.0278129 α      in ANC's #2, #1, #9, ...

........................................................................
.............................. CYCLE    3 ..............................
........................................................................
   1    -22.8804412 -0.228804E+02  0.453E-02    3.71       0.0  T
   2    -22.8804442 -0.300708E-05  0.258E-02    3.72       1.0  T
   3    -22.8804442  0.369691E-07  0.146E-02    3.72       1.7  T
   4    -22.8804451 -0.910970E-06  0.193E-03    3.72      12.6  T
   5    -22.8804451 -0.140543E-07  0.100E-03    3.72      24.1  T
   6    -22.8804451 -0.204971E-08  0.567E-04    3.72      42.8  T
   7    -22.8804451 -0.108983E-08  0.140E-04    3.72     173.2  T
     SCC iter.                  ...        0 min,  0.003 sec
     gradient                   ...        0 min,  0.003 sec
 * total energy  :   -22.4849476 Eh     change       -0.8990820E-04 Eh
   gradient norm :     0.0032591 Eh/α   predicted    -0.6905712E-04 ( -23.19%)
   displ. norm   :     0.0577355 α      lambda       -0.6341512E-04
   maximum displ.:     0.0379830 α      in ANC's #2, #1, #9, ...

........................................................................
.............................. CYCLE    4 ..............................
........................................................................
   1    -22.8816030 -0.228816E+02  0.416E-02    3.70       0.0  T
   2    -22.8816064 -0.347233E-05  0.230E-02    3.71       1.1  T
   3    -22.8816066 -0.194341E-06  0.133E-02    3.71       1.8  T
   4    -22.8816073 -0.654873E-06  0.219E-03    3.71      11.1  T
   5    -22.8816073 -0.179335E-07  0.104E-03    3.71      23.3  T
   6    -22.8816073 -0.155069E-08  0.574E-04    3.71      42.3  T
   7    -22.8816073 -0.138992E-08  0.140E-04    3.71     173.4  T
     SCC iter.                  ...        0 min,  0.002 sec
     gradient                   ...        0 min,  0.003 sec
 * total energy  :   -22.4849945 Eh     change       -0.4697423E-04 Eh
   gradient norm :     0.0026297 Eh/α   predicted    -0.3181251E-04 ( -32.28%)
   displ. norm   :     0.0815939 α      lambda       -0.5658090E-04
   maximum displ.:     0.0525686 α      in ANC's #2, #1, #9, ...

........................................................................
.............................. CYCLE    5 ..............................
........................................................................
   1    -22.8813330 -0.228813E+02  0.528E-02    3.69       0.0  T
   2    -22.8813377 -0.464117E-05  0.292E-02    3.70       1.0  T
   3    -22.8813376  0.106223E-07  0.162E-02    3.70       1.5  T
   4    -22.8813387 -0.110160E-05  0.275E-03    3.70       8.8  T
   5    -22.8813388 -0.268882E-07  0.129E-03    3.70      18.9  T
   6    -22.8813388 -0.125167E-08  0.656E-04    3.70      37.0  T
   7    -22.8813388 -0.235391E-08  0.162E-04    3.70     149.6  T
     SCC iter.                  ...        0 min,  0.002 sec
     gradient                   ...        0 min,  0.003 sec
 * total energy  :   -22.4850323 Eh     change       -0.3773066E-04 Eh
   gradient norm :     0.0020757 Eh/α   predicted    -0.2847862E-04 ( -24.52%)
   displ. norm   :     0.0532748 α      lambda       -0.1925062E-04
   maximum displ.:     0.0395701 α      in ANC's #1, #2, #9, ...

........................................................................
.............................. CYCLE    6 ..............................
........................................................................
   1    -22.8808202 -0.228808E+02  0.313E-02    3.69       0.0  T
   2    -22.8808211 -0.964696E-06  0.176E-02    3.69       1.4  T
   3    -22.8808210  0.155137E-06  0.845E-03    3.69       2.9  T
   4    -22.8808214 -0.389376E-06  0.144E-03    3.69      16.8  T
   5    -22.8808214 -0.637037E-08  0.677E-04    3.69      35.8  T
   6    -22.8808214 -0.585878E-10  0.291E-04    3.69      83.3  T
     SCC iter.                  ...        0 min,  0.002 sec
     gradient                   ...        0 min,  0.003 sec
 * total energy  :   -22.4850451 Eh     change       -0.1280849E-04 Eh
   gradient norm :     0.0011305 Eh/α   predicted    -0.9653472E-05 ( -24.63%)
   displ. norm   :     0.0424250 α      lambda       -0.5347027E-05
   maximum displ.:     0.0364526 α      in ANC's #1, #2, #4, ...

........................................................................
.............................. CYCLE    7 ..............................
........................................................................
   1    -22.8806547 -0.228807E+02  0.221E-02    3.69       0.0  T
   2    -22.8806549 -0.197068E-06  0.126E-02    3.69       1.9  T
   3    -22.8806548  0.834865E-07  0.432E-03    3.69       5.6  T
   4    -22.8806549 -0.143561E-06  0.801E-04    3.69      30.3  T
   5    -22.8806549 -0.115204E-08  0.376E-04    3.69      64.6  T
     SCC iter.                  ...        0 min,  0.002 sec
     gradient                   ...        0 min,  0.003 sec
 * total energy  :   -22.4850495 Eh     change       -0.4442978E-05 Eh
   gradient norm :     0.0006827 Eh/α   predicted    -0.2675492E-05 ( -39.78%)
   displ. norm   :     0.0139128 α      lambda       -0.1468585E-05
   maximum displ.:     0.0124030 α      in ANC's #1, #4, #3, ...

   *** GEOMETRY OPTIMIZATION CONVERGED AFTER 7 ITERATIONS ***

------------------------------------------------------------------------
 total energy gain   :        -0.0011386 Eh       -0.7145 kcal/mol
 total RMSD          :         0.0795966 a0        0.0421 Å
 total power (kW/mol):        -0.4270733 (step)  -59.6342 (real)
------------------------------------------------------------------------

 ANCopt (total)                0 d,  0 h,  0 min,  0.050 sec
 optimizer setup                ...        0 min,  0.000 sec (  0.333%)
 model hessian                  ...        0 min,  0.002 sec (  3.731%)
 ANC generation                 ...        0 min,  0.000 sec (  0.630%)
 coordinate transformation      ...        0 min,  0.000 sec (  0.088%)
 single point calculation       ...        0 min,  0.045 sec ( 90.438%)
 optimization log               ...        0 min,  0.001 sec (  2.568%)
 hessian update                 ...        0 min,  0.000 sec (  0.075%)
 rational function              ...        0 min,  0.001 sec (  1.356%)

================
 final structure:
================
17
 xtb: 6.4.1 (afa7bdf)
C         1.35870449015318    1.34362692908527    0.01607477674013
C         0.00619182231748    1.06184052220669    0.04318658253368
C        -0.44282224644512   -0.26266375485681    0.03100971311058
C         0.51560187587218   -1.28354434241690   -0.01564162327226
C         1.86245102522595   -0.99069519180295   -0.04268861396404
C         2.29665632201062    0.32620511267161   -0.02753622750526
H         1.68417376927499    2.37431640198567    0.02587252843378
H        -0.70233190217065    1.87411455937150    0.07469423045305
H         0.18638414803195   -2.31337924241340   -0.02917937507119
H         2.58265129508517   -1.79566715440113   -0.08065339708823
H         3.35160785177499    0.55453688876042   -0.05164566245511
N        -1.77217722657550   -0.59240285901577    0.11786275390639
H        -1.98498712053031   -1.54438727796420   -0.13389897577476
C        -2.82658697872170    0.36274964635981   -0.12966302812358
H        -2.74943541611179    0.82296731263567   -1.12199028739617
H        -3.78273958081005   -0.14765581434223   -0.05188882950810
H        -2.79702312838138    1.15195426413675    0.62267043498110
 
 Bond Distances (Angstroems)
 ---------------------------
C1-C2=1.3818         C1-C6=1.3845         C1-H7=1.0809         C2-C1=1.3818         C2-C3=1.3986         C2-H8=1.0783         
C3-C2=1.3986         C3-C4=1.4011         C3-N12=1.3724        C4-C3=1.4011         C4-C5=1.3786         C4-H9=1.0813         
C5-C4=1.3786         C5-C6=1.3867         C5-H10=1.0808        C6-C1=1.3845         C6-C5=1.3867         C6-H11=1.0796        
H7-C1=1.0809         H8-C2=1.0783         H9-C4=1.0813         H10-C5=1.0808        H11-C6=1.0796        N12-C3=1.3724        
N12-H13=1.0074       N12-C14=1.4441       H13-N12=1.0074       C14-N12=1.4441       C14-H15=1.0966       C14-H16=1.0866       
C14-H17=1.0907       H15-C14=1.0966       H16-C14=1.0866       H17-C14=1.0907       
 C  H  Rav=1.0844 sigma=0.0060  Rmin=1.0783  Rmax=1.0966     8
 C  C  Rav=1.3885 sigma=0.0084  Rmin=1.3786  Rmax=1.4011     6
 N  H  Rav=1.0074 sigma=0.0000  Rmin=1.0074  Rmax=1.0074     1
 N  C  Rav=1.4082 sigma=0.0358  Rmin=1.3724  Rmax=1.4441     2
 
 selected bond angles (degree)
 --------------------
C6-C1-C2=120.92                H7-C1-C2=119.27                H7-C1-C6=119.80                C3-C2-C1=120.48                
H8-C2-C1=119.35                H8-C2-C3=120.18                C4-C3-C2=118.08                N12-C3-C2=122.55               
N12-C3-C4=119.32               C5-C4-C3=120.94                H9-C4-C3=119.09                H9-C4-C5=119.97                
C6-C5-C4=120.49                H10-C5-C4=119.57               H10-C5-C6=119.94               C5-C6-C1=119.08                
H11-C6-C1=120.48               H11-C6-C5=120.43               
 
 selected dihedral angles (degree)
 ---------------------------------
C3-C2-C1-C6=  0.19            C3-C2-C1-H7=179.99            H8-C2-C1-C6=180.14            H8-C2-C1-H7=359.94            
C4-C3-C2-C1=359.70            C4-C3-C2-H8=179.75            N12-C3-C2-C1=176.97           N12-C3-C2-H8=357.02           
C5-C4-C3-C2=  0.29            C5-C4-C3-N12=182.92           H9-C4-C3-C2=180.21            H9-C4-C3-N12=  2.85           
C6-C5-C4-C3=359.84            C6-C5-C4-H9=179.91            H10-C5-C4-C3=180.13           H10-C5-C4-H9=  0.20           
C5-C6-C1-C2=359.94            C5-C6-C1-H7=180.15            H11-C6-C1-C2=179.81           H11-C6-C1-H7=  0.00           
C1-C6-C5-C4=  0.04            C1-C6-C5-H10=179.75           H11-C6-C5-C4=180.18           H11-C6-C5-H10=359.89          
           -------------------------------------------------
          |                Final Singlepoint                |
           -------------------------------------------------

          ...................................................
          :                      SETUP                      :
          :.................................................:
          :  # basis functions                  41          :
          :  # atomic orbitals                  41          :
          :  # shells                           25          :
          :  # electrons                        42          :
          :  max. iterations                   250          :
          :  Hamiltonian                  GFN2-xTB          :
          :  restarted?                      false          :
          :  GBSA solvation                   true          :
          :  PC potential                    false          :
          :  electronic temp.          300.0000000     K    :
          :  accuracy                    1.0000000          :
          :  -> integral cutoff          0.2500000E+02      :
          :  -> integral neglect         0.1000000E-07      :
          :  -> SCF convergence          0.1000000E-05 Eh   :
          :  -> wf. convergence          0.1000000E-03 e    :
          :  Broyden damping             0.4000000          :
          ...................................................

 iter      E             dE          RMSdq      gap      omega  full diag
   1    -22.8806549 -0.228807E+02  0.124E-04    3.69       0.0  T
   2    -22.8806549 -0.106098E-09  0.648E-05    3.69     374.3  T
   3    -22.8806549 -0.382379E-10  0.358E-05    3.69     677.0  T

   *** convergence criteria satisfied after 3 iterations ***

         #    Occupation            Energy/Eh            Energy/eV
      -------------------------------------------------------------
         1        2.0000           -0.6436623             -17.5149
       ...           ...                  ...                  ...
        15        2.0000           -0.4662137             -12.6863
        16        2.0000           -0.4539339             -12.3522
        17        2.0000           -0.4253826             -11.5752
        18        2.0000           -0.4176265             -11.3642
        19        2.0000           -0.4112151             -11.1897
        20        2.0000           -0.3927029             -10.6860
        21        2.0000           -0.3457612              -9.4086 (HOMO)
        22                         -0.2102213              -5.7204 (LUMO)
        23                         -0.1976727              -5.3789
        24                         -0.0762123              -2.0738
        25                          0.0328800               0.8947
        26                          0.1180678               3.2128
       ...                                ...                  ...
        41                          0.6802215              18.5098
      -------------------------------------------------------------
                  HL-Gap            0.1355399 Eh            3.6882 eV
             Fermi-level           -0.2779912 Eh           -7.5645 eV

 SCC (total)                   0 d,  0 h,  0 min,  0.006 sec
 SCC setup                      ...        0 min,  0.000 sec (  5.752%)
 Dispersion                     ...        0 min,  0.000 sec (  0.626%)
 classical contributions        ...        0 min,  0.000 sec (  0.245%)
 integral evaluation            ...        0 min,  0.001 sec ( 20.928%)
 iterations                     ...        0 min,  0.001 sec ( 25.603%)
 molecular gradient             ...        0 min,  0.003 sec ( 44.376%)
 printout                       ...        0 min,  0.000 sec (  2.188%)

         :::::::::::::::::::::::::::::::::::::::::::::::::::::
         ::                     SUMMARY                     ::
         :::::::::::::::::::::::::::::::::::::::::::::::::::::
         :: total energy             -22.485049514495 Eh    ::
         :: total w/o Gsasa/hb       -22.482649281683 Eh    ::
         :: gradient norm              0.000681238973 Eh/a0 ::
         :: HOMO-LUMO gap              3.688228145019 eV    ::
         ::.................................................::
         :: SCC energy               -22.880654915034 Eh    ::
         :: -> isotropic ES            0.009816555096 Eh    ::
         :: -> anisotropic ES          0.006428995470 Eh    ::
         :: -> anisotropic XC          0.014965108189 Eh    ::
         :: -> dispersion             -0.012582979226 Eh    ::
         :: -> Gsolv                  -0.004523193795 Eh    ::
         ::    -> Gelec               -0.002122960983 Eh    ::
         ::    -> Gsasa               -0.002100681975 Eh    ::
         ::    -> Ghb                 -0.001380310535 Eh    ::
         ::    -> Gshift               0.001080759698 Eh    ::
         :: repulsion energy           0.395587926430 Eh    ::
         :: add. restraining           0.000000000000 Eh    ::
         :: total charge              -0.000000000000 e     ::
         :::::::::::::::::::::::::::::::::::::::::::::::::::::

           ------------------------------------------------- 
          |                Numerical Hessian                |
           ------------------------------------------------- 
step length          :   0.00500
SCC accuracy         :   0.30000
Hessian scale factor :   1.00000
frozen atoms in %    :   0.00000    0
RMS gradient         :   0.00068
estimated CPU  time      0.01 min
estimated wall time      0.01 min

writing file <hessian>.

 projected vibrational frequencies (cm⁻¹)
eigval :       -0.00    -0.00    -0.00     0.00     0.00     0.00
eigval :       98.25   150.06   222.57   236.67   372.79   401.25
eigval :      452.03   479.50   557.62   590.34   654.19   747.22
eigval :      808.53   851.39   861.24   917.46   920.72   974.44
eigval :     1075.68  1091.00  1100.99  1115.71  1160.65  1181.04
eigval :     1202.51  1260.47  1299.44  1341.81  1381.59  1412.05
eigval :     1453.67  1470.39  1494.80  1498.82  1577.64  1607.19
eigval :     2904.41  2990.59  3043.44  3053.69  3059.46  3065.36
eigval :     3081.83  3100.73  3460.98
           -------------------------------------------------
          |                Property Printout                |
           -------------------------------------------------

    * Orbital Energies and Occupations

         #    Occupation            Energy/Eh            Energy/eV
      -------------------------------------------------------------
         1        2.0000           -0.6436622             -17.5149
       ...           ...                  ...                  ...
         9        2.0000           -0.5199046             -14.1473
        10        2.0000           -0.5062000             -13.7744
        11        2.0000           -0.4998189             -13.6008
        12        2.0000           -0.4819074             -13.1134
        13        2.0000           -0.4713497             -12.8261
        14        2.0000           -0.4671615             -12.7121
        15        2.0000           -0.4662136             -12.6863
        16        2.0000           -0.4539337             -12.3522
        17        2.0000           -0.4253825             -11.5752
        18        2.0000           -0.4176264             -11.3642
        19        2.0000           -0.4112151             -11.1897
        20        2.0000           -0.3927028             -10.6860
        21        2.0000           -0.3457611              -9.4086 (HOMO)
        22                         -0.2102212              -5.7204 (LUMO)
        23                         -0.1976726              -5.3789
        24                         -0.0762122              -2.0738
        25                          0.0328802               0.8947
        26                          0.1180679               3.2128
        27                          0.1367840               3.7221
        28                          0.1440498               3.9198
        29                          0.1619342               4.4065
        30                          0.1799796               4.8975
        31                          0.1957935               5.3278
        32                          0.2086055               5.6764
       ...                                ...                  ...
        41                          0.6802216              18.5098
      -------------------------------------------------------------
                  HL-Gap            0.1355398 Eh            3.6882 eV
             Fermi-level           -0.2779912 Eh           -7.5645 eV

     #   Z          covCN         q      C6AA      α(0)
     1   6 C        2.919    -0.038    28.957     8.824
     2   6 C        2.922    -0.068    29.690     8.936
     3   6 C        2.903     0.068    26.472     8.436
     4   6 C        2.926    -0.071    29.758     8.946
     5   6 C        2.918    -0.038    28.934     8.821
     6   6 C        2.918    -0.056    29.398     8.891
     7   1 H        0.926     0.022     2.709     2.574
     8   1 H        0.926     0.030     2.589     2.516
     9   1 H        0.925     0.022     2.710     2.574
    10   1 H        0.926     0.022     2.706     2.573
    11   1 H        0.926     0.016     2.790     2.612
    12   7 N        2.688    -0.200    25.344     7.477
    13   1 H        0.860     0.181     1.207     1.721
    14   6 C        3.687    -0.047    21.615     6.655
    15   1 H        0.924     0.039     2.464     2.455
    16   1 H        0.925     0.062     2.175     2.306
    17   1 H        0.924     0.056     2.245     2.343

 Mol. C6AA /au·bohr⁶  :       3104.720745
 Mol. C8AA /au·bohr⁸  :      72857.301603
 Mol. α(0) /au        :         88.660501


Wiberg/Mayer (AO) data.
largest (>0.10) Wiberg bond orders for each atom

 ---------------------------------------------------------------------------
     #   Z sym  total        # sym  WBO       # sym  WBO       # sym  WBO
 ---------------------------------------------------------------------------
     1   6 C    3.993 --     2 C    1.459     6 C    1.431     7 H    0.972
                             4 C    0.103
     2   6 C    3.987 --     1 C    1.459     3 C    1.338     8 H    0.968
                             5 C    0.100
     3   6 C    3.975 --     2 C    1.338     4 C    1.328    12 N    1.175
     4   6 C    3.986 --     5 C    1.475     3 C    1.328     9 H    0.968
                             1 C    0.103
     5   6 C    3.993 --     4 C    1.475     6 C    1.416    10 H    0.971
                             2 C    0.100
     6   6 C    3.990 --     1 C    1.431     5 C    1.416    11 H    0.972
     7   1 H    0.999 --     1 C    0.972
     8   1 H    0.999 --     2 C    0.968
     9   1 H    1.000 --     4 C    0.968
    10   1 H    0.999 --     5 C    0.971
    11   1 H    1.000 --     6 C    0.972
    12   7 N    3.334 --     3 C    1.175    14 C    1.014    13 H    0.939
    13   1 H    0.967 --    12 N    0.939
    14   6 C    3.975 --    12 N    1.014    16 H    0.984    17 H    0.978
                            15 H    0.975
    15   1 H    0.998 --    14 C    0.975
    16   1 H    0.996 --    14 C    0.984
    17   1 H    0.997 --    14 C    0.978
 ---------------------------------------------------------------------------

Topologies differ in total number of bonds
Writing topology from bond orders to xtbtopo.mol

molecular dipole:
                 x           y           z       tot (Debye)
 q only:       -1.057      -0.181      -0.097
   full:       -1.034      -0.238      -0.241       2.765
molecular quadrupole (traceless):
                xx          xy          yy          xz          yz          zz
 q only:        3.257       0.738      -0.279       0.559       0.327      -2.977
  q+dip:        4.244       1.518       2.377       1.145       0.940      -6.622
   full:        3.450       1.287       1.147       1.314       0.811      -4.597

           -------------------------------------------------
          |                Geometry Summary                 |
           -------------------------------------------------

      molecular mass/u    :      107.1533213
   center of mass at/Å    :        0.0392390      -0.0057568      -0.0056511
  moments of inertia/u·Å² :        0.1001567E+03   0.3300404E+03   0.4258850E+03
rotational constants/cm⁻¹ :        0.1683126E+00   0.5107749E-01   0.3958259E-01

 * 17 selected distances

     #   Z          #   Z                                           value/Å
     1   6 C        2   6 C                                       1.3818210
     2   6 C        3   6 C                                       1.3985970
     3   6 C        4   6 C                                       1.4010533
     4   6 C        5   6 C                                       1.3785843
     1   6 C        6   6 C                                       1.3844864
     5   6 C        6   6 C                                       1.3867192
     1   6 C        7   1 H                                       1.0809010
     2   6 C        8   1 H                                       1.0783263
     4   6 C        9   1 H                                       1.0812620
     5   6 C       10   1 H                                       1.0807912
     6   6 C       11   1 H                                       1.0796478
     3   6 C       12   7 N                                       1.3723906
    12   7 N       13   1 H                                       1.0074455 (min)
    12   7 N       14   6 C                                       1.4440794 (max)
    14   6 C       15   1 H                                       1.0965701
    14   6 C       16   1 H                                       1.0866418
    14   6 C       17   1 H                                       1.0907445

 * 4 distinct bonds (by element types)

   Z      Z             #   av. dist./Å        max./Å        min./Å
   1 H    6 C           8     1.0843606     1.0965701     1.0783263
   6 C    6 C           6     1.3885435     1.4010533     1.3785843
   1 H    7 N           1     1.0074455     1.0074455     1.0074455
   6 C    7 N           2     1.4082350     1.4440794     1.3723906

           -------------------------------------------------
          |               Frequency Printout                |
           -------------------------------------------------
 projected vibrational frequencies (cm⁻¹)
eigval :       -0.00    -0.00    -0.00     0.00     0.00     0.00
eigval :       98.25   150.06   222.57   236.67   372.79   401.25
eigval :      452.03   479.50   557.62   590.34   654.19   747.22
eigval :      808.53   851.39   861.24   917.46   920.72   974.44
eigval :     1075.68  1091.00  1100.99  1115.71  1160.65  1181.04
eigval :     1202.51  1260.47  1299.44  1341.81  1381.59  1412.05
eigval :     1453.67  1470.39  1494.80  1498.82  1577.64  1607.19
eigval :     2904.41  2990.59  3043.44  3053.69  3059.46  3065.36
eigval :     3081.83  3100.73  3460.98
 reduced masses (amu)
   1:  9.86   2: 11.22   3: 10.89   4: 10.84   5: 10.49   6: 10.75   7:  9.28   8:  3.31
   9:  9.52  10:  7.72  11:  8.13  12:  7.48  13:  9.26  14:  9.46  15:  8.66  16: 11.08
  17: 10.10  18:  4.28  19: 10.39  20:  3.42  21:  3.69  22:  3.86  23:  2.75  24: 10.63
  25:  7.51  26:  5.07  27:  5.29  28:  5.41  29:  6.22  30:  1.28  31:  1.97  32:  4.67
  33:  4.91  34: 11.28  35:  7.50  36:  2.85  37:  8.42  38:  1.89  39:  1.56  40:  9.64
  41: 11.38  42: 11.48  43:  1.76  44:  1.66  45:  1.68  46:  1.76  47:  1.77  48:  1.85
  49:  1.89  50:  1.85  51:  1.84
 IR intensities (km·mol⁻¹)
   1:  0.18   2:  0.11   3:  0.20   4:  0.54   5:  0.49   6:  0.46   7:  5.57   8:  0.61
   9:  0.84  10:  5.82  11: 43.01  12: 79.24  13: 65.73  14: 10.97  15: 39.27  16:  2.04
  17:  0.58  18: 43.16  19: 10.52  20:  0.07  21:  1.11  22:  0.01  23:  0.01  24:  0.43
  25: 14.25  26: 16.02  27:  8.97  28:  4.74  29:  5.02  30:  0.26  31: 19.93  32: 32.77
  33: 46.26  34: 61.51  35:165.29  36:  0.40  37: 37.18  38:  9.67  39: 12.66  40:242.71
  41:  7.12  42:277.60  43: 96.72  44: 47.06  45: 40.56  46: 53.78  47: 41.53  48:242.72
  49:220.66  50: 70.12  51:  8.37
 Raman intensities (amu)
   1:  0.00   2:  0.00   3:  0.00   4:  0.00   5:  0.00   6:  0.00   7:  0.00   8:  0.00
   9:  0.00  10:  0.00  11:  0.00  12:  0.00  13:  0.00  14:  0.00  15:  0.00  16:  0.00
  17:  0.00  18:  0.00  19:  0.00  20:  0.00  21:  0.00  22:  0.00  23:  0.00  24:  0.00
  25:  0.00  26:  0.00  27:  0.00  28:  0.00  29:  0.00  30:  0.00  31:  0.00  32:  0.00
  33:  0.00  34:  0.00  35:  0.00  36:  0.00  37:  0.00  38:  0.00  39:  0.00  40:  0.00
  41:  0.00  42:  0.00  43:  0.00  44:  0.00  45:  0.00  46:  0.00  47:  0.00  48:  0.00
  49:  0.00  50:  0.00  51:  0.00
 output can be read by thermo (or use thermo option).
 writing <g98.out> molden fake output.
 recommended (thermochemical) frequency scaling factor: 1.0
           -------------------------------------------------
          |             Thermodynamic Functions             |
           -------------------------------------------------

Molecule has no symmetry elements
It seems to be the C1 point group
c1  symmetry found (for desy threshold:  0.10E+00) used in thermo

          ...................................................
          :                      SETUP                      :
          :.................................................:
          :  # frequencies                          45      :
          :  # imaginary freq.                       0      :
          :  linear?                             false      :
          :  only rotor calc.                    false      :
          :  symmetry                               c1      :
          :  rotational number                       1      :
          :  scaling factor                  1.0000000      :
          :  rotor cutoff                   50.0000000 cm⁻¹ :
          :  imag. cutoff                  -20.0000000 cm⁻¹ :
          :.................................................:

    mode    ω/cm⁻¹     T·S(HO)/kcal·mol⁻¹    T·S(FR)/kcal·mol⁻¹   T·S(vib)
   ------------------------------------------------------------------------
       1     98.25    -1.04016 ( 93.71%)    -0.85626 (  6.29%)    -1.02860
       2    150.06    -0.79651 ( 98.78%)    -0.73087 (  1.22%)    -0.79571
       3    222.57    -0.57785 ( 99.75%)    -0.61412 (  0.25%)    -0.57794
       4    236.67    -0.54495 ( 99.80%)    -0.59593 (  0.20%)    -0.54505
   ------------------------------------------------------------------------

   temp. (K)  partition function   enthalpy   heat capacity  entropy
                                   cal/mol     cal/K/mol   cal/K/mol   J/K/mol
 298.15  VIB   27.9                 2958.579     22.926     16.499
         ROT  0.287E+06              888.752      2.981     27.953
         INT  0.800E+07             3847.331     25.906     44.452
         TR   0.107E+28             1481.254      4.968     39.906
         TOT                        5328.5849    30.8746    84.3575   352.9518

       T/K    H(0)-H(T)+PV         H(T)/Eh          T*S/Eh         G(T)/Eh
   ------------------------------------------------------------------------
    298.15    0.849164E-02    0.149242E+00    0.400810E-01    0.109161E+00
   ------------------------------------------------------------------------

         :::::::::::::::::::::::::::::::::::::::::::::::::::::
         ::                  THERMODYNAMIC                  ::
         :::::::::::::::::::::::::::::::::::::::::::::::::::::
         :: total free energy         -22.375888585376 Eh   ::
         ::.................................................::
         :: total energy              -22.485049514626 Eh   ::
         :: zero point energy           0.140750265464 Eh   ::
         :: G(RRHO) w/o ZPVE           -0.031589336214 Eh   ::
         :: G(RRHO) contrib.            0.109160929250 Eh   ::
         :::::::::::::::::::::::::::::::::::::::::::::::::::::

optimized geometry written to: xtbopt.xyz


           -------------------------------------------------
          | TOTAL ENERGY              -22.485049514626 Eh   |
          | TOTAL ENTHALPY            -22.335807608628 Eh   |
          | TOTAL FREE ENERGY         -22.375888585376 Eh   |
          | GRADIENT NORM               0.000681025561 Eh/α |
          | HOMO-LUMO GAP               3.688226763832 eV   |
           -------------------------------------------------

------------------------------------------------------------------------
 * finished run on 2021/11/15 at 09:36:20.953     
------------------------------------------------------------------------
 total:
 * wall-time:     0 d,  0 h,  0 min,  0.772 sec
 *  cpu-time:     0 d,  0 h,  0 min,  0.750 sec
 * ratio c/w:     0.972 speedup
 SCF:
 * wall-time:     0 d,  0 h,  0 min,  0.009 sec
 *  cpu-time:     0 d,  0 h,  0 min,  0.016 sec
 * ratio c/w:     1.787 speedup
 ANC optimizer:
 * wall-time:     0 d,  0 h,  0 min,  0.057 sec
 *  cpu-time:     0 d,  0 h,  0 min,  0.047 sec
 * ratio c/w:     0.816 speedup
 analytical hessian:
 * wall-time:     0 d,  0 h,  0 min,  0.669 sec
 *  cpu-time:     0 d,  0 h,  0 min,  0.672 sec
 * ratio c/w:     1.004 speedup

