 Entering Gaussian System
 *********************************************
 Gaussian 98:
 frequency output generated by the xtb code
 *********************************************
                         Standard orientation:
 --------------------------------------------------------------------
  Center     Atomic     Atomic              Coordinates (Angstroms)
  Number     Number      Type              X           Y           Z
 --------------------------------------------------------------------
    1          6             0        1.358712    1.343620    0.016068
    2          6             0        0.006198    1.061841    0.043185
    3          6             0       -0.442824   -0.262661    0.031012
    4          6             0        0.515595   -1.283547   -0.015641
    5          6             0        1.862446   -0.990705   -0.042693
    6          6             0        2.296658    0.326193   -0.027545
    7          1             0        1.684186    2.374308    0.025863
    8          1             0       -0.702322    1.874118    0.074693
    9          1             0        0.186372   -2.313380   -0.029176
   10          1             0        2.582642   -1.795681   -0.080659
   11          1             0        3.351611    0.554519   -0.051658
   12          7             0       -1.772180   -0.592393    0.117870
   13          1             0       -1.984996   -1.544377   -0.133889
   14          6             0       -2.826586    0.362764   -0.129654
   15          1             0       -2.749435    0.822980   -1.121982
   16          1             0       -3.782741   -0.147636   -0.051875
   17          1             0       -2.797015    1.151970    0.622678
 --------------------------------------------------------------------
     1 basis functions        1 primitive gaussians
     1 alpha electrons        1 beta electrons
 
 Harmonic frequencies (cm**-1), IR intensities (km*mol⁻¹),
 Raman scattering activities (A**4/amu), Raman depolarization ratios,
 reduced masses (AMU), force constants (mDyne/A) and normal coordinates:
                      1                      2                      3
                        a                      a                      a 
 Frequencies --    98.2512               150.0568               222.5656
 Red. masses --     9.2802                 3.3066                 9.5212
 Frc consts  --     0.0000                 0.0000                 0.0000
 IR Inten    --     5.5674                 0.6087                 0.8428
 Raman Activ --     0.0000                 0.0000                 0.0000
 Depolar     --     0.0000                 0.0000                 0.0000
 Atom AN      X      Y      Z        X      Y      Z        X      Y      Z
   1   6     0.00   0.00   0.08     0.11  -0.01   0.11     0.03  -0.00   0.02
   2   6     0.01   0.01   0.33     0.08   0.08  -0.04     0.03   0.01   0.36
   3   6    -0.00   0.01   0.26     0.00   0.11  -0.07     0.00   0.02   0.15
   4   6    -0.03   0.01   0.04    -0.04   0.07  -0.16     0.01   0.01   0.38
   5   6    -0.03   0.00  -0.23    -0.02  -0.02  -0.06     0.01  -0.00   0.05
   6   6    -0.02  -0.00  -0.25     0.06  -0.05   0.14     0.01   0.00  -0.38
   7   1     0.00  -0.00   0.04     0.05  -0.01   0.06     0.01  -0.00  -0.01
   8   1     0.00   0.00   0.17     0.04   0.04  -0.03     0.02   0.01   0.15
   9   1    -0.01   0.00   0.01    -0.03   0.02  -0.08     0.00   0.00   0.17
  10   1    -0.01  -0.00  -0.13    -0.02  -0.02  -0.03    -0.00  -0.00   0.01
  11   1    -0.01  -0.00  -0.14     0.02  -0.03   0.08     0.00   0.00  -0.25
  12   7    -0.03   0.04   0.40     0.01   0.07   0.13    -0.01  -0.04  -0.52
  13   1     0.02  -0.00   0.12     0.03   0.01   0.05     0.01   0.01  -0.24
  14   6     0.08  -0.05  -0.50    -0.17  -0.19  -0.06    -0.07   0.00  -0.00
  15   1     0.18  -0.11  -0.17    -0.35  -0.43  -0.22    -0.20  -0.05  -0.04
  16   1     0.01  -0.01  -0.25    -0.03  -0.02   0.47    -0.02   0.02   0.20
  17   1    -0.10   0.05  -0.21     0.19   0.22  -0.32     0.13   0.03  -0.04
                      4                      5                      6
                        a                      a                      a 
 Frequencies --   236.6689               372.7917               401.2537
 Red. masses --     7.7157                 8.1282                 7.4788
 Frc consts  --     0.0000                 0.0000                 0.0000
 IR Inten    --     5.8242                43.0054                79.2374
 Raman Activ --     0.0000                 0.0000                 0.0000
 Depolar     --     0.0000                 0.0000                 0.0000
 Atom AN      X      Y      Z        X      Y      Z        X      Y      Z
   1   6    -0.24   0.02   0.01     0.02   0.01  -0.40    -0.04  -0.02  -0.16
   2   6    -0.18  -0.21  -0.02     0.01   0.08   0.34     0.04  -0.22   0.26
   3   6    -0.01  -0.26   0.00    -0.02   0.10   0.03     0.02  -0.22  -0.05
   4   6     0.10  -0.15  -0.02    -0.08   0.08  -0.38     0.14  -0.14  -0.22
   5   6     0.06   0.08  -0.02    -0.05  -0.03   0.37     0.15   0.07   0.21
   6   6    -0.12   0.14   0.02    -0.02  -0.04   0.03     0.09   0.09  -0.04
   7   1    -0.12   0.02   0.00     0.02   0.00  -0.25    -0.06   0.01  -0.08
   8   1    -0.07  -0.08  -0.02     0.02   0.04   0.20    -0.02  -0.09   0.17
   9   1     0.07  -0.06  -0.01    -0.05   0.03  -0.22     0.10  -0.06  -0.11
  10   1     0.05   0.06  -0.01    -0.02  -0.02   0.22     0.07   0.04   0.14
  11   1    -0.04   0.08   0.01    -0.00  -0.02   0.01     0.02   0.05  -0.02
  12   7    -0.07  -0.13   0.09    -0.01  -0.16   0.13    -0.06   0.30  -0.14
  13   1    -0.09   0.02  -0.11     0.06   0.04  -0.38    -0.12  -0.04   0.53
  14   6     0.39   0.37  -0.03     0.10  -0.06  -0.00    -0.25   0.13  -0.02
  15   1     0.07  -0.06  -0.09     0.05  -0.03  -0.01    -0.12   0.01  -0.02
  16   1     0.03   0.29   0.20     0.01   0.02   0.00    -0.04  -0.02   0.02
  17   1     0.35   0.21  -0.13     0.05  -0.02  -0.01    -0.12   0.06  -0.03
                      7                      8                      9
                        a                      a                      a 
 Frequencies --   452.0267               479.5017               557.6204
 Red. masses --     9.2550                 9.4571                 8.6632
 Frc consts  --     0.0000                 0.0000                 0.0000
 IR Inten    --    65.7286                10.9712                39.2723
 Raman Activ --     0.0000                 0.0000                 0.0000
 Depolar     --     0.0000                 0.0000                 0.0000
 Atom AN      X      Y      Z        X      Y      Z        X      Y      Z
   1   6    -0.15   0.10   0.02     0.03  -0.01   0.29     0.07  -0.23  -0.00
   2   6    -0.14   0.24   0.08     0.01  -0.02  -0.06    -0.05   0.04   0.02
   3   6     0.16   0.13  -0.10    -0.03   0.01  -0.60    -0.33   0.09   0.00
   4   6    -0.13  -0.09  -0.05     0.00   0.02  -0.03    -0.06   0.41  -0.03
   5   6    -0.18  -0.17   0.08     0.02   0.01   0.27     0.01   0.11   0.02
   6   6    -0.35  -0.10  -0.06     0.03   0.02  -0.38     0.31  -0.02  -0.03
   7   1     0.03   0.01   0.03     0.01  -0.01   0.28    -0.00  -0.06   0.01
   8   1    -0.06   0.04   0.07     0.01  -0.01   0.17     0.09   0.10   0.02
   9   1    -0.12   0.00   0.00     0.01   0.00   0.18     0.01   0.11  -0.01
  10   1    -0.02  -0.02   0.07     0.01  -0.00   0.27    -0.08  -0.05   0.02
  11   1    -0.10  -0.04  -0.03     0.01   0.00  -0.12     0.08   0.01  -0.00
  12   7     0.39   0.04  -0.18    -0.04  -0.02   0.27    -0.19  -0.35  -0.14
  13   1     0.08  -0.10   0.44    -0.02   0.03  -0.09    -0.07  -0.20   0.40
  14   6     0.34  -0.11   0.04    -0.01  -0.00   0.02     0.16  -0.04   0.02
  15   1     0.06  -0.04   0.00     0.04  -0.01   0.00     0.13  -0.00   0.02
  16   1     0.10  -0.03   0.05    -0.01   0.01  -0.02    -0.04   0.16  -0.00
  17   1     0.12  -0.01  -0.00    -0.03   0.01  -0.00     0.19  -0.02   0.01
                     10                     11                     12
                        a                      a                      a 
 Frequencies --   590.3393               654.1920               747.2226
 Red. masses --    11.0819                10.0957                 4.2835
 Frc consts  --     0.0000                 0.0000                 0.0000
 IR Inten    --     2.0421                 0.5804                43.1558
 Raman Activ --     0.0000                 0.0000                 0.0000
 Depolar     --     0.0000                 0.0000                 0.0000
 Atom AN      X      Y      Z        X      Y      Z        X      Y      Z
   1   6     0.30   0.36  -0.00     0.01  -0.00   0.37     0.00   0.02  -0.13
   2   6     0.38  -0.20  -0.01    -0.01   0.00  -0.31    -0.00   0.01  -0.22
   3   6    -0.05  -0.13  -0.00     0.02  -0.01   0.48     0.02  -0.01   0.38
   4   6    -0.30  -0.25  -0.00    -0.00  -0.01  -0.31     0.00  -0.01  -0.20
   5   6    -0.44   0.29   0.02     0.01  -0.01   0.37     0.01  -0.01  -0.12
   6   6     0.03   0.17   0.00    -0.01   0.01  -0.34    -0.01   0.00  -0.14
   7   1     0.02   0.12   0.00     0.00   0.00   0.01     0.01  -0.00   0.34
   8   1     0.08  -0.08  -0.00    -0.01   0.00  -0.25     0.01  -0.01   0.37
   9   1    -0.02  -0.09  -0.00    -0.00   0.00  -0.25     0.01  -0.01   0.33
  10   1    -0.10   0.10   0.01     0.00   0.00   0.01     0.02  -0.01   0.33
  11   1     0.04  -0.11  -0.00    -0.01   0.00  -0.22     0.01  -0.01   0.48
  12   7    -0.04  -0.13  -0.04    -0.00   0.01  -0.05    -0.01  -0.01  -0.08
  13   1    -0.01  -0.06   0.08     0.02  -0.00  -0.01     0.01  -0.00  -0.03
  14   6     0.08  -0.07   0.01    -0.01   0.01  -0.01    -0.01   0.01  -0.01
  15   1     0.05  -0.01   0.01    -0.01   0.01   0.00    -0.01   0.00  -0.00
  16   1    -0.00   0.03  -0.00     0.00  -0.01  -0.00    -0.00   0.00   0.01
  17   1     0.06  -0.03   0.01    -0.00  -0.00   0.01     0.00   0.00  -0.01
                     13                     14                     15
                        a                      a                      a 
 Frequencies --   808.5266               851.3860               861.2362
 Red. masses --    10.3897                 3.4234                 3.6887
 Frc consts  --     0.0000                 0.0000                 0.0000
 IR Inten    --    10.5152                 0.0733                 1.1076
 Raman Activ --     0.0000                 0.0000                 0.0000
 Depolar     --     0.0000                 0.0000                 0.0000
 Atom AN      X      Y      Z        X      Y      Z        X      Y      Z
   1   6    -0.18  -0.43  -0.00    -0.00   0.00  -0.10    -0.00   0.00  -0.10
   2   6    -0.12  -0.25  -0.01    -0.01   0.01  -0.37     0.00  -0.00   0.10
   3   6     0.00  -0.01   0.02    -0.00  -0.00   0.02    -0.00   0.00  -0.07
   4   6    -0.18   0.10   0.01     0.01  -0.00   0.17     0.01  -0.00   0.34
   5   6    -0.28   0.30   0.01     0.00  -0.00   0.15     0.00  -0.00   0.05
   6   6     0.29   0.07  -0.01     0.00  -0.00   0.15    -0.01   0.00  -0.32
   7   1    -0.17  -0.08   0.01     0.01  -0.00   0.17     0.01  -0.00   0.26
   8   1    -0.02  -0.06   0.01     0.01  -0.01   0.68    -0.00   0.00  -0.16
   9   1    -0.01   0.02   0.01    -0.01   0.01  -0.33    -0.01   0.01  -0.62
  10   1    -0.16   0.01   0.01    -0.01   0.01  -0.33    -0.00  -0.00  -0.03
  11   1     0.07   0.03   0.01    -0.01   0.00  -0.26     0.01  -0.01   0.53
  12   7     0.30   0.32  -0.01    -0.00  -0.00  -0.01    -0.00   0.00   0.02
  13   1     0.10   0.11  -0.12     0.00   0.00  -0.01    -0.00   0.00   0.00
  14   6     0.20  -0.07   0.02    -0.00  -0.00   0.00     0.00  -0.00   0.00
  15   1    -0.05  -0.03  -0.01     0.00  -0.00   0.00     0.00  -0.00  -0.00
  16   1     0.15  -0.20   0.03    -0.00   0.00   0.01    -0.00   0.00  -0.00
  17   1    -0.09  -0.00  -0.01    -0.00   0.01  -0.01     0.00  -0.00   0.00
                     16                     17                     18
                        a                      a                      a 
 Frequencies --   917.4564               920.7229               974.4430
 Red. masses --     3.8604                 2.7500                10.6317
 Frc consts  --     0.0000                 0.0000                 0.0000
 IR Inten    --     0.0095                 0.0066                 0.4270
 Raman Activ --     0.0000                 0.0000                 0.0000
 Depolar     --     0.0000                 0.0000                 0.0000
 Atom AN      X      Y      Z        X      Y      Z        X      Y      Z
   1   6     0.01  -0.00   0.35    -0.00   0.00  -0.16    -0.00  -0.18  -0.00
   2   6    -0.00   0.00  -0.17    -0.00   0.00   0.01    -0.28   0.49   0.02
   3   6    -0.00   0.00  -0.02     0.00  -0.00   0.09     0.13   0.03  -0.00
   4   6     0.01  -0.00   0.17     0.00  -0.00   0.09    -0.05  -0.55  -0.01
   5   6    -0.01   0.00  -0.27    -0.01   0.01  -0.27    -0.09   0.16   0.01
   6   6    -0.00  -0.00  -0.05     0.01  -0.00   0.21     0.37   0.08  -0.01
   7   1    -0.01   0.01  -0.63     0.01  -0.01   0.40     0.09  -0.07  -0.01
   8   1     0.01  -0.01   0.28    -0.00   0.00  -0.15    -0.01   0.20   0.00
   9   1    -0.00   0.00  -0.24    -0.00   0.00  -0.28     0.06  -0.17  -0.01
  10   1     0.01  -0.01   0.44     0.02  -0.01   0.60     0.04   0.10  -0.00
  11   1     0.00  -0.00   0.11    -0.01   0.01  -0.46     0.10   0.01  -0.00
  12   7    -0.00  -0.00  -0.00    -0.00   0.00  -0.00    -0.01  -0.10   0.02
  13   1    -0.01  -0.00   0.01     0.01  -0.00  -0.00    -0.01  -0.03   0.01
  14   6     0.00  -0.00   0.00    -0.00   0.00  -0.00    -0.13   0.04  -0.01
  15   1     0.01  -0.01  -0.00    -0.00   0.00  -0.00     0.03   0.01   0.00
  16   1    -0.00   0.00   0.00     0.00  -0.00  -0.00    -0.08   0.10  -0.02
  17   1    -0.00   0.01  -0.01     0.00  -0.00   0.00     0.04   0.01  -0.00
                     19                     20                     21
                        a                      a                      a 
 Frequencies --  1075.6785              1090.9988              1100.9915
 Red. masses --     7.5135                 5.0717                 5.2948
 Frc consts  --     0.0000                 0.0000                 0.0000
 IR Inten    --    14.2505                16.0185                 8.9746
 Raman Activ --     0.0000                 0.0000                 0.0000
 Depolar     --     0.0000                 0.0000                 0.0000
 Atom AN      X      Y      Z        X      Y      Z        X      Y      Z
   1   6    -0.05  -0.32  -0.00     0.07  -0.19  -0.01     0.03  -0.03  -0.00
   2   6     0.18  -0.12  -0.01     0.06   0.10   0.00     0.02   0.05  -0.00
   3   6     0.19   0.09  -0.00    -0.12  -0.08   0.00    -0.18  -0.01   0.00
   4   6     0.10   0.09   0.00     0.13   0.04  -0.00    -0.01  -0.10  -0.00
   5   6    -0.15   0.24   0.01    -0.06   0.26   0.01     0.08   0.00  -0.00
   6   6    -0.32  -0.05   0.01    -0.32  -0.12   0.01    -0.06   0.01   0.00
   7   1     0.06  -0.12  -0.01     0.32  -0.15  -0.01     0.08  -0.03  -0.01
   8   1     0.14   0.04   0.00     0.17   0.16  -0.01     0.12   0.12   0.01
   9   1     0.13  -0.00  -0.00     0.32  -0.07  -0.00     0.08  -0.06  -0.00
  10   1     0.07   0.17   0.00     0.14   0.22  -0.00     0.13   0.10   0.00
  11   1    -0.10   0.01   0.00    -0.08  -0.09  -0.00    -0.03   0.07   0.00
  12   7     0.19  -0.07   0.09    -0.11   0.01  -0.10    -0.25   0.20   0.14
  13   1     0.28  -0.08   0.03    -0.21   0.05  -0.04    -0.01   0.03   0.04
  14   6    -0.34   0.05  -0.14     0.18   0.01   0.18     0.28  -0.16  -0.30
  15   1     0.01   0.15   0.05     0.08  -0.19  -0.05    -0.37   0.33   0.06
  16   1    -0.22   0.28   0.01     0.14  -0.19  -0.06     0.16  -0.17   0.21
  17   1     0.26  -0.10   0.07    -0.26   0.16  -0.11     0.23  -0.32   0.23
                     22                     23                     24
                        a                      a                      a 
 Frequencies --  1115.7126              1160.6481              1181.0375
 Red. masses --     5.4140                 6.2249                 1.2790
 Frc consts  --     0.0000                 0.0000                 0.0000
 IR Inten    --     4.7408                 5.0168                 0.2615
 Raman Activ --     0.0000                 0.0000                 0.0000
 Depolar     --     0.0000                 0.0000                 0.0000
 Atom AN      X      Y      Z        X      Y      Z        X      Y      Z
   1   6    -0.04  -0.13  -0.00    -0.01  -0.12  -0.00    -0.03  -0.00   0.00
   2   6     0.20  -0.09  -0.01     0.13   0.00  -0.00    -0.07  -0.03   0.00
   3   6    -0.15   0.15   0.00     0.13   0.01  -0.00    -0.02   0.07   0.00
   4   6    -0.14  -0.21   0.00    -0.10  -0.01   0.01     0.06   0.01   0.00
   5   6     0.15  -0.14  -0.01    -0.00   0.00   0.00     0.05   0.03  -0.00
   6   6    -0.05   0.18   0.00    -0.03   0.09   0.00     0.02  -0.07  -0.00
   7   1    -0.18   0.01   0.01    -0.03  -0.03  -0.00    -0.40   0.12   0.01
   8   1     0.31   0.20  -0.01     0.15   0.09  -0.00     0.10   0.10  -0.00
   9   1    -0.26   0.01   0.00    -0.38   0.11   0.01    -0.22   0.08   0.00
  10   1     0.23   0.12  -0.00     0.09   0.08   0.00     0.38   0.34  -0.00
  11   1    -0.09   0.40   0.01    -0.06   0.27   0.01     0.14  -0.66  -0.02
  12   7    -0.09   0.21  -0.09     0.12  -0.43   0.06     0.00  -0.01   0.00
  13   1     0.03   0.05  -0.04    -0.10  -0.09   0.06    -0.01  -0.00   0.00
  14   6     0.04  -0.23   0.16    -0.04   0.39  -0.09    -0.00   0.02  -0.00
  15   1     0.26  -0.15   0.01    -0.29   0.08  -0.04    -0.01   0.00  -0.00
  16   1    -0.09   0.11  -0.10     0.18  -0.25   0.07     0.01  -0.02   0.00
  17   1     0.07   0.05  -0.08    -0.26   0.06   0.01    -0.01   0.00  -0.00
                     25                     26                     27
                        a                      a                      a 
 Frequencies --  1202.5113              1260.4732              1299.4448
 Red. masses --     1.9683                 4.6716                 4.9098
 Frc consts  --     0.0000                 0.0000                 0.0000
 IR Inten    --    19.9299                32.7688                46.2620
 Raman Activ --     0.0000                 0.0000                 0.0000
 Depolar     --     0.0000                 0.0000                 0.0000
 Atom AN      X      Y      Z        X      Y      Z        X      Y      Z
   1   6     0.09  -0.06  -0.00     0.13   0.03  -0.00     0.01  -0.13  -0.00
   2   6    -0.09  -0.06   0.00    -0.06  -0.09   0.00     0.27   0.22  -0.00
   3   6     0.07  -0.01   0.00    -0.36   0.24  -0.01     0.24   0.16   0.00
   4   6    -0.10   0.05   0.00    -0.12  -0.07   0.00    -0.12   0.06   0.00
   5   6     0.05   0.12   0.00     0.01  -0.18  -0.00    -0.07   0.03   0.00
   6   6     0.05   0.00  -0.00     0.06   0.01  -0.00    -0.00  -0.25  -0.00
   7   1     0.48  -0.16  -0.01     0.01   0.02  -0.00    -0.45   0.10   0.01
   8   1    -0.39  -0.34   0.00    -0.21  -0.19  -0.00    -0.31  -0.28   0.00
   9   1    -0.43   0.14   0.01     0.31  -0.14  -0.01     0.26  -0.07  -0.01
  10   1     0.28   0.27  -0.00     0.27   0.18  -0.00     0.13   0.15  -0.00
  11   1     0.00   0.03   0.00    -0.00   0.10   0.00    -0.07   0.23   0.01
  12   7    -0.07   0.08  -0.02     0.07  -0.08  -0.01    -0.16  -0.06  -0.01
  13   1    -0.08   0.03   0.00     0.55  -0.15   0.02    -0.29   0.04   0.02
  14   6     0.04  -0.12   0.01    -0.00   0.22   0.03     0.10  -0.09   0.00
  15   1     0.04  -0.01   0.01    -0.01  -0.06  -0.04    -0.07   0.02   0.00
  16   1    -0.06   0.09  -0.00     0.09  -0.11   0.01    -0.04   0.08  -0.00
  17   1     0.05  -0.03   0.01    -0.10   0.06  -0.00    -0.06  -0.01   0.00
                     28                     29                     30
                        a                      a                      a 
 Frequencies --  1341.8139              1381.5915              1412.0528
 Red. masses --    11.2789                 7.5033                 2.8472
 Frc consts  --     0.0000                 0.0000                 0.0000
 IR Inten    --    61.5112               165.2854                 0.3990
 Raman Activ --     0.0000                 0.0000                 0.0000
 Depolar     --     0.0000                 0.0000                 0.0000
 Atom AN      X      Y      Z        X      Y      Z        X      Y      Z
   1   6     0.33  -0.20  -0.01    -0.17  -0.13   0.00    -0.10   0.05   0.00
   2   6    -0.19  -0.20   0.00     0.23   0.11  -0.00    -0.01  -0.08  -0.00
   3   6     0.08   0.45   0.01     0.19   0.05  -0.03    -0.03   0.02   0.00
   4   6     0.42  -0.13  -0.02     0.09  -0.14  -0.00    -0.12   0.01   0.00
   5   6    -0.27  -0.17   0.00     0.16   0.23   0.00     0.07  -0.04  -0.00
   6   6    -0.14   0.39   0.01    -0.10   0.00   0.00     0.04   0.04  -0.00
   7   1    -0.05  -0.01   0.00    -0.05  -0.04  -0.00     0.10  -0.03  -0.00
   8   1    -0.07  -0.08  -0.00    -0.07  -0.09  -0.00     0.09   0.06  -0.00
   9   1    -0.02   0.01  -0.00    -0.20   0.03   0.00     0.07  -0.03  -0.00
  10   1    -0.11  -0.07   0.00    -0.22  -0.17   0.00     0.03  -0.00  -0.00
  11   1    -0.00  -0.06  -0.00     0.00  -0.16  -0.00     0.03  -0.06  -0.00
  12   7    -0.14  -0.04  -0.01    -0.49   0.03  -0.05     0.11  -0.04   0.02
  13   1    -0.16   0.01   0.03     0.48  -0.15   0.05     0.06  -0.02  -0.01
  14   6     0.09  -0.04   0.00     0.18   0.03   0.09     0.25  -0.20   0.05
  15   1    -0.06   0.02   0.00    -0.07  -0.10  -0.05    -0.45   0.25   0.08
  16   1    -0.00   0.03   0.00     0.05  -0.04  -0.05    -0.25   0.47  -0.11
  17   1    -0.06   0.01  -0.01    -0.10   0.03   0.01    -0.41   0.19  -0.19
                     31                     32                     33
                        a                      a                      a 
 Frequencies --  1453.6708              1470.3867              1494.8041
 Red. masses --     8.4172                 1.8892                 1.5583
 Frc consts  --     0.0000                 0.0000                 0.0000
 IR Inten    --    37.1793                 9.6658                12.6626
 Raman Activ --     0.0000                 0.0000                 0.0000
 Depolar     --     0.0000                 0.0000                 0.0000
 Atom AN      X      Y      Z        X      Y      Z        X      Y      Z
   1   6    -0.33  -0.11   0.01     0.08  -0.02  -0.00    -0.01  -0.02  -0.00
   2   6     0.30  -0.04  -0.01     0.00   0.06   0.00     0.03   0.02   0.00
   3   6    -0.10   0.34   0.02    -0.08  -0.06  -0.00    -0.01   0.03  -0.00
   4   6    -0.28  -0.13   0.00     0.07  -0.03  -0.00    -0.00  -0.02  -0.00
   5   6     0.32  -0.02  -0.01     0.01   0.07   0.00     0.03   0.03  -0.00
   6   6    -0.04   0.30   0.01    -0.04  -0.05  -0.00    -0.01  -0.00   0.00
   7   1     0.16  -0.12  -0.01    -0.06   0.02   0.00    -0.01  -0.00   0.00
   8   1    -0.06  -0.14  -0.00    -0.03  -0.00  -0.01    -0.06  -0.05  -0.00
   9   1     0.14  -0.11  -0.00    -0.07   0.02   0.00    -0.01  -0.00  -0.00
  10   1    -0.06  -0.14  -0.00    -0.04  -0.02   0.00    -0.02  -0.02   0.00
  11   1     0.07  -0.31  -0.01    -0.02   0.02  -0.00    -0.00  -0.02   0.00
  12   7     0.14  -0.10   0.01     0.00   0.00  -0.03    -0.04  -0.04   0.01
  13   1    -0.28   0.05  -0.00     0.08  -0.02  -0.01     0.02  -0.02   0.01
  14   6    -0.07   0.04  -0.07    -0.01  -0.09  -0.19    -0.12  -0.14   0.08
  15   1     0.11  -0.02  -0.00     0.44   0.23   0.14     0.06   0.52   0.24
  16   1     0.03  -0.04   0.11    -0.00   0.10   0.67     0.14  -0.31  -0.10
  17   1     0.02  -0.06   0.06    -0.42   0.04  -0.04     0.29   0.43  -0.46
                     34                     35                     36
                        a                      a                      a 
 Frequencies --  1498.8178              1577.6446              1607.1894
 Red. masses --     9.6444                11.3767                11.4791
 Frc consts  --     0.0000                 0.0000                 0.0000
 IR Inten    --   242.7076                 7.1246               277.5953
 Raman Activ --     0.0000                 0.0000                 0.0000
 Depolar     --     0.0000                 0.0000                 0.0000
 Atom AN      X      Y      Z        X      Y      Z        X      Y      Z
   1   6    -0.29   0.14   0.01     0.19  -0.28  -0.01    -0.44   0.05   0.01
   2   6    -0.06  -0.21  -0.00     0.10   0.32   0.00     0.39   0.20  -0.01
   3   6     0.52   0.09  -0.02     0.06  -0.49  -0.01    -0.30  -0.06   0.01
   4   6    -0.15   0.19   0.01    -0.18   0.22   0.01     0.47  -0.02  -0.01
   5   6    -0.21  -0.28   0.00    -0.05  -0.31  -0.00    -0.40  -0.21   0.01
   6   6     0.22   0.08  -0.00    -0.12   0.53   0.01     0.20   0.02  -0.00
   7   1     0.20  -0.05  -0.01    -0.08  -0.03   0.00     0.09  -0.05  -0.00
   8   1     0.18   0.11  -0.00    -0.10  -0.03   0.00    -0.06  -0.09  -0.00
   9   1     0.20  -0.02  -0.00     0.07   0.01  -0.00    -0.09   0.06   0.00
  10   1     0.17   0.12  -0.00     0.07  -0.00  -0.00     0.06   0.09   0.00
  11   1     0.07   0.01  -0.00     0.03  -0.13  -0.00     0.05   0.02  -0.00
  12   7    -0.32  -0.01  -0.03    -0.01   0.06   0.00     0.07   0.01   0.01
  13   1     0.06  -0.04   0.04     0.11  -0.01  -0.01    -0.00   0.01  -0.02
  14   6     0.01  -0.01  -0.01    -0.00  -0.01   0.01     0.01  -0.00  -0.01
  15   1     0.15   0.02   0.02    -0.00   0.00   0.00    -0.02   0.01   0.01
  16   1     0.06  -0.08   0.13    -0.01   0.02  -0.01    -0.01   0.02  -0.01
  17   1    -0.04   0.01  -0.01    -0.00   0.01  -0.01    -0.00  -0.00  -0.00
                     37                     38                     39
                        a                      a                      a 
 Frequencies --  2904.4059              2990.5926              3043.4380
 Red. masses --     1.7565                 1.6578                 1.6782
 Frc consts  --     0.0000                 0.0000                 0.0000
 IR Inten    --    96.7156                47.0554                40.5631
 Raman Activ --     0.0000                 0.0000                 0.0000
 Depolar     --     0.0000                 0.0000                 0.0000
 Atom AN      X      Y      Z        X      Y      Z        X      Y      Z
   1   6    -0.00   0.00   0.00    -0.00   0.00  -0.00     0.00   0.00   0.00
   2   6     0.00   0.00  -0.00    -0.00   0.01   0.00     0.00  -0.00   0.00
   3   6    -0.01  -0.00  -0.00    -0.00  -0.00   0.00    -0.00  -0.00  -0.00
   4   6     0.00  -0.00  -0.00     0.00  -0.00  -0.00    -0.00  -0.01  -0.00
   5   6    -0.00  -0.00   0.00     0.00  -0.00   0.00     0.00  -0.00  -0.00
   6   6     0.00   0.00   0.00     0.00   0.00  -0.00     0.00   0.00  -0.00
   7   1    -0.00  -0.00  -0.00    -0.00  -0.00  -0.00    -0.00  -0.01  -0.00
   8   1     0.00  -0.00   0.00     0.02  -0.01   0.00    -0.00   0.00   0.00
   9   1     0.00   0.00   0.00    -0.00  -0.00  -0.00     0.01   0.02   0.00
  10   1    -0.00   0.00   0.00    -0.00   0.00   0.00    -0.00   0.00   0.00
  11   1    -0.00  -0.00  -0.00    -0.00  -0.00   0.00    -0.00  -0.00   0.00
  12   7     0.02  -0.01   0.01     0.01  -0.01   0.00     0.01  -0.00  -0.00
  13   1    -0.00  -0.01   0.00    -0.00  -0.01  -0.01     0.00   0.01   0.00
  14   6    -0.04  -0.07   0.25    -0.03  -0.19  -0.14     0.22   0.11  -0.02
  15   1     0.08   0.40  -0.87     0.00   0.02  -0.14     0.03   0.03  -0.03
  16   1     0.02   0.01   0.04     0.04  -0.00  -0.03    -0.84  -0.47   0.07
  17   1    -0.02  -0.11  -0.05     0.04   0.68   0.67     0.03   0.05   0.03
                     40                     41                     42
                        a                      a                      a 
 Frequencies --  3053.6890              3059.4643              3065.3650
 Red. masses --     1.7621                 1.7679                 1.8466
 Frc consts  --     0.0000                 0.0000                 0.0000
 IR Inten    --    53.7826                41.5282               242.7241
 Raman Activ --     0.0000                 0.0000                 0.0000
 Depolar     --     0.0000                 0.0000                 0.0000
 Atom AN      X      Y      Z        X      Y      Z        X      Y      Z
   1   6    -0.00  -0.00   0.00     0.07   0.22   0.00    -0.03  -0.08  -0.00
   2   6    -0.01   0.01   0.00     0.02  -0.02  -0.00    -0.00   0.01   0.00
   3   6     0.01   0.01  -0.00     0.00  -0.00  -0.00    -0.01  -0.00   0.00
   4   6     0.07   0.20   0.00    -0.01  -0.02  -0.00    -0.04  -0.14  -0.00
   5   6     0.10  -0.11  -0.01     0.00  -0.01  -0.00     0.12  -0.14  -0.01
   6   6    -0.02  -0.01   0.00    -0.11  -0.02   0.00    -0.11  -0.02   0.00
   7   1     0.00   0.01   0.00    -0.26  -0.81  -0.01     0.09   0.27   0.00
   8   1     0.02  -0.02  -0.00    -0.09   0.10   0.00     0.02  -0.03  -0.00
   9   1    -0.23  -0.74  -0.01     0.02   0.07   0.00     0.15   0.49   0.01
  10   1    -0.37   0.42   0.02    -0.03   0.04   0.00    -0.43   0.48   0.02
  11   1     0.10   0.02  -0.00     0.41   0.09  -0.01     0.41   0.09  -0.01
  12   7    -0.00  -0.00  -0.00     0.00   0.00  -0.00     0.00  -0.00  -0.00
  13   1    -0.00   0.00   0.00     0.00  -0.00   0.00     0.00  -0.00   0.00
  14   6     0.00   0.00   0.00    -0.00  -0.00  -0.00    -0.00  -0.00   0.00
  15   1     0.00   0.00   0.00    -0.00  -0.00   0.00    -0.00  -0.00   0.00
  16   1    -0.02  -0.01   0.00     0.01   0.00  -0.00     0.01   0.01  -0.00
  17   1     0.00  -0.00  -0.00     0.00   0.00   0.00    -0.00  -0.00  -0.00
                     43                     44                     45
                        a                      a                      a 
 Frequencies --  3081.8308              3100.7271              3460.9828
 Red. masses --     1.8938                 1.8488                 1.8398
 Frc consts  --     0.0000                 0.0000                 0.0000
 IR Inten    --   220.6611                70.1208                 8.3693
 Raman Activ --     0.0000                 0.0000                 0.0000
 Depolar     --     0.0000                 0.0000                 0.0000
 Atom AN      X      Y      Z        X      Y      Z        X      Y      Z
   1   6    -0.02  -0.08  -0.00     0.02   0.07   0.00    -0.00  -0.00   0.00
   2   6    -0.04   0.05   0.00    -0.17   0.20   0.01     0.00   0.00  -0.00
   3   6     0.00   0.00  -0.00    -0.01  -0.00   0.00    -0.00  -0.01  -0.00
   4   6     0.02   0.06   0.00    -0.00  -0.02  -0.00     0.00   0.00  -0.00
   5   6    -0.09   0.10   0.00     0.02  -0.02  -0.00    -0.00  -0.00   0.00
   6   6    -0.21  -0.05   0.00     0.05   0.01  -0.00     0.00   0.00   0.00
   7   1     0.08   0.26   0.00    -0.06  -0.20  -0.00    -0.00   0.00  -0.00
   8   1     0.17  -0.19  -0.01     0.61  -0.69  -0.03    -0.00   0.00   0.00
   9   1    -0.07  -0.20  -0.00     0.02   0.07   0.00    -0.00   0.00  -0.00
  10   1     0.29  -0.33  -0.02    -0.06   0.06   0.00     0.00  -0.00  -0.00
  11   1     0.72   0.16  -0.02    -0.16  -0.03   0.00     0.00   0.00  -0.00
  12   7    -0.00  -0.00   0.00     0.00   0.00  -0.00    -0.05  -0.24  -0.06
  13   1    -0.00   0.00  -0.00     0.00   0.00   0.00     0.21   0.92   0.23
  14   6     0.00   0.00   0.00    -0.00   0.00   0.00    -0.00  -0.01  -0.00
  15   1     0.00   0.00  -0.00    -0.00  -0.00   0.01    -0.00   0.01  -0.01
  16   1    -0.01  -0.01   0.00    -0.00  -0.00   0.00     0.00   0.00   0.00
  17   1     0.00  -0.00  -0.00    -0.00  -0.02  -0.01     0.00   0.01   0.01
