17
 energy: -22.485049514495 gnorm: 0.000681238973 xtb: 6.4.1 (afa7bdf)
C         1.35871158144394    1.34361984296022    0.01606768889524
C         0.00619753284486    1.06184056514423    0.04318470765849
C        -0.44282351349435   -0.26266138211936    0.03101171728632
C         0.51559510064762   -1.28354706938195   -0.01564118285473
C         1.86244568891546   -0.99070501806353   -0.04269338605492
C         2.29665793384931    0.32619303934298   -0.02754481368330
H         1.68418629143119    2.37430762879188    0.02586250559422
H        -0.70232182859454    1.87411836710886    0.07469341110634
H         0.18637193336146   -2.31338026921037   -0.02917598806592
H         2.58264161141954   -1.79568081786960   -0.08065927821091
H         3.35161057497577    0.55451924963656   -0.05165832962262
N        -1.77217991693122   -0.59239337420133    0.11786997390904
H        -1.98499567427130   -1.54437711826777   -0.13388935139727
C        -2.82658553192577    0.36276422002679   -0.12965379459029
H        -2.74943502351079    0.82297975041134   -1.12198212639643
H        -3.78274053498495   -0.14763609852399   -0.05187536754760
H        -2.79701492317905    1.15196999605160    0.62267818788945
