      -----------------------------------------------------------      
     |                   =====================                   |     
     |                           x T B                           |     
     |                   =====================                   |     
     |                         S. Grimme                         |     
     |          Mulliken Center for Theoretical Chemistry        |     
     |                    University of Bonn                     |     
      -----------------------------------------------------------      

   * xtb version 6.4.1 (afa7bdf) compiled by 'ehlert@majestix' on 2021-06-10

   xtb is free software: you can redistribute it and/or modify it under
   the terms of the GNU Lesser General Public License as published by
   the Free Software Foundation, either version 3 of the License, or
   (at your option) any later version.
   
   xtb is distributed in the hope that it will be useful,
   but WITHOUT ANY WARRANTY; without even the implied warranty of
   MERCHANTABILITY or FITNESS FOR A PARTICULAR PURPOSE.  See the
   GNU Lesser General Public License for more details.
   
   Cite this work as:
   * C. Bannwarth, E. Caldeweyher, S. Ehlert, A. Hansen, P. Pracht,
     J. Seibert, S. Spicher, S. Grimme, WIREs Comput. Mol. Sci., 2020, 11,
     e01493. DOI: 10.1002/wcms.1493
   
   for GFN2-xTB:
   * C. Bannwarth, S. Ehlert and S. Grimme., J. Chem. Theory Comput., 2019,
     15, 1652-1671. DOI: 10.1021/acs.jctc.8b01176
   for GFN1-xTB:
   * S. Grimme, C. Bannwarth, P. Shushkov, J. Chem. Theory Comput., 2017,
     13, 1989-2009. DOI: 10.1021/acs.jctc.7b00118
   for GFN0-xTB:
   * P. Pracht, E. Caldeweyher, S. Ehlert, S. Grimme, ChemRxiv, 2019, preprint.
     DOI: 10.26434/chemrxiv.8326202.v1
   for GFN-FF:
   * S. Spicher and S. Grimme, Angew. Chem. Int. Ed., 2020, 59, 15665-15673.
     DOI: 10.1002/anie.202004239
   
   for DFT-D4:
   * E. Caldeweyher, C. Bannwarth and S. Grimme, J. Chem. Phys., 2017,
     147, 034112. DOI: 10.1063/1.4993215
   * E. Caldeweyher, S. Ehlert, A. Hansen, H. Neugebauer, S. Spicher,
     C. Bannwarth and S. Grimme, J. Chem. Phys., 2019, 150, 154122.
     DOI: 10.1063/1.5090222
   * E. Caldeweyher, J.-M. Mewes, S. Ehlert and S. Grimme, Phys. Chem. Chem. Phys.
     2020, 22, 8499-8512. DOI: 10.1039/D0CP00502A
   
   for sTDA-xTB:
   * S. Grimme and C. Bannwarth, J. Chem. Phys., 2016, 145, 054103.
     DOI: 10.1063/1.4959605
   
   in the mass-spec context:
   * V. Asgeirsson, C. Bauer and S. Grimme, Chem. Sci., 2017, 8, 4879.
     DOI: 10.1039/c7sc00601b
   * J. Koopman and S. Grimme, ACS Omega 2019, 4, 12, 15120-15133.
     DOI: 10.1021/acsomega.9b02011
   
   for metadynamics refer to:
   * S. Grimme, J. Chem. Theory Comput., 2019, 155, 2847-2862
     DOI: 10.1021/acs.jctc.9b00143
   
   for SPH calculations refer to:
   * S. Spicher and S. Grimme, J. Chem. Theory Comput., 2021, 17, 1701-1714
     DOI: 10.1021/acs.jctc.0c01306
   
   with help from (in alphabetical order)
   P. Atkinson, C. Bannwarth, F. Bohle, G. Brandenburg, E. Caldeweyher
   M. Checinski, S. Dohm, S. Ehlert, S. Ehrlich, I. Gerasimov, J. Koopman
   C. Lavigne, S. Lehtola, F. März, M. Müller, F. Musil, H. Neugebauer
   J. Pisarek, C. Plett, P. Pracht, J. Seibert, P. Shushkov, S. Spicher
   M. Stahn, M. Steiner, T. Strunk, J. Stückrath, T. Rose, and J. Unsleber
   
 * started run on 2021/11/15 at 09:23:08.376     

           -------------------------------------------------
          |                Calculation Setup                |
           -------------------------------------------------

          program call               : xtb 15_2,5-dimethylphenol.xyz --gfn2 --chrg 0 --uhf 0 --alpb water -P 1
          coordinate file            : 15_2,5-dimethylphenol.xyz
          omp threads                :                     1
          number of atoms            :                    19
          number of electrons        :                    48
          charge                     :                     0
          spin                       :                   0.0
          first test random number   :      0.58219645846947

   ID    Z sym.   atoms
    1    6 C      1-6, 12, 16
    2    1 H      7, 9-11, 13-15, 17-19
    3    8 O      8

           -------------------------------------------------
          |                 G F N 2 - x T B                 |
           -------------------------------------------------

        Reference                      10.1021/acs.jctc.8b01176
      * Hamiltonian:
        H0-scaling (s, p, d)           1.850000    2.230000    2.230000
        zeta-weighting                 0.500000
      * Dispersion:
        s8                             2.700000
        a1                             0.520000
        a2                             5.000000
        s9                             5.000000
      * Repulsion:
        kExp                           1.500000    1.000000
        rExp                           1.000000
      * Coulomb:
        alpha                          2.000000
        third order                    shell-resolved
        anisotropic                    true
        a3                             3.000000
        a5                             4.000000
        cn-shift                       1.200000
        cn-exp                         4.000000
        max-rad                        5.000000

      * Solvation model:               ALPB
        Solvent                        water
        Parameter file                 internal GFN2-xTB/ALPB
        Dielectric constant                8.0200E+01
        Reference state                gsolv [1 M gas/solution]
        Free energy shift                  1.0808E-03 Eh       6.7819E-01 kcal/mol
        Temperature                        2.9815E+02 K
        Density                            1.0000E+00 kg/L
        Solvent mass                       1.8000E+01 g/mol
        Interaction kernel             P16
        Born radius scaling (c1)           1.4744E+00
        Born radii integrator          GBOBC
        Born offset                        0.0000E+00 a0       0.0000E+00 AA
        H-bond correction              true
        Ion screening                  false
        Surface tension                    1.0000E-05 Eh       1.5569E+01 dyn/cm
        Grid points                               230 per atom
q/qsh data taken from xtbrestart
CAMM data taken from xtbrestart

          ...................................................
          :                      SETUP                      :
          :.................................................:
          :  # basis functions                  46          :
          :  # atomic orbitals                  46          :
          :  # shells                           28          :
          :  # electrons                        48          :
          :  max. iterations                   250          :
          :  Hamiltonian                  GFN2-xTB          :
          :  restarted?                       true          :
          :  GBSA solvation                   true          :
          :  PC potential                    false          :
          :  electronic temp.          300.0000000     K    :
          :  accuracy                    1.0000000          :
          :  -> integral cutoff          0.2500000E+02      :
          :  -> integral neglect         0.1000000E-07      :
          :  -> SCF convergence          0.1000000E-05 Eh   :
          :  -> wf. convergence          0.1000000E-03 e    :
          :  Broyden damping             0.4000000          :
          ...................................................

 iter      E             dE          RMSdq      gap      omega  full diag
   1    -26.6983708 -0.266984E+02  0.113E-04    4.24       0.0  T
   2    -26.6983708 -0.347242E-10  0.757E-05    4.24     303.2  T
   3    -26.6983708 -0.780176E-11  0.475E-05    4.24     483.1  T

   *** convergence criteria satisfied after 3 iterations ***

         #    Occupation            Energy/Eh            Energy/eV
      -------------------------------------------------------------
         1        2.0000           -0.7011754             -19.0800
       ...           ...                  ...                  ...
        18        2.0000           -0.4648846             -12.6502
        19        2.0000           -0.4452498             -12.1159
        20        2.0000           -0.4375485             -11.9063
        21        2.0000           -0.4274841             -11.6324
        22        2.0000           -0.4169322             -11.3453
        23        2.0000           -0.3861951             -10.5089
        24        2.0000           -0.3716768             -10.1138 (HOMO)
        25                         -0.2160244              -5.8783 (LUMO)
        26                         -0.2077962              -5.6544
        27                         -0.0892135              -2.4276
        28                          0.0626402               1.7045
        29                          0.0883612               2.4044
       ...                                ...                  ...
        46                          0.6315917              17.1865
      -------------------------------------------------------------
                  HL-Gap            0.1556524 Eh            4.2355 eV
             Fermi-level           -0.2938506 Eh           -7.9961 eV

 SCC (total)                   0 d,  0 h,  0 min,  0.008 sec
 SCC setup                      ...        0 min,  0.000 sec (  5.915%)
 Dispersion                     ...        0 min,  0.000 sec (  1.679%)
 classical contributions        ...        0 min,  0.000 sec (  0.308%)
 integral evaluation            ...        0 min,  0.002 sec ( 20.469%)
 iterations                     ...        0 min,  0.002 sec ( 27.791%)
 molecular gradient             ...        0 min,  0.003 sec ( 41.473%)
 printout                       ...        0 min,  0.000 sec (  2.124%)

         :::::::::::::::::::::::::::::::::::::::::::::::::::::
         ::                     SUMMARY                     ::
         :::::::::::::::::::::::::::::::::::::::::::::::::::::
         :: total energy             -26.299062558035 Eh    ::
         :: total w/o Gsasa/hb       -26.295893000331 Eh    ::
         :: gradient norm              0.020331116357 Eh/a0 ::
         :: HOMO-LUMO gap              4.235517780757 eV    ::
         ::.................................................::
         :: SCC energy               -26.698370815436 Eh    ::
         :: -> isotropic ES            0.030868350936 Eh    ::
         :: -> anisotropic ES          0.004643060139 Eh    ::
         :: -> anisotropic XC          0.011751560752 Eh    ::
         :: -> dispersion             -0.014364055305 Eh    ::
         :: -> Gsolv                  -0.007428514325 Eh    ::
         ::    -> Gelec               -0.004258956621 Eh    ::
         ::    -> Gsasa               -0.000044559310 Eh    ::
         ::    -> Ghb                 -0.004205758093 Eh    ::
         ::    -> Gshift               0.001080759698 Eh    ::
         :: repulsion energy           0.399287851224 Eh    ::
         :: add. restraining           0.000000000000 Eh    ::
         :: total charge               0.000000000000 e     ::
         :::::::::::::::::::::::::::::::::::::::::::::::::::::

           -------------------------------------------------
          |                Property Printout                |
           -------------------------------------------------

    * Orbital Energies and Occupations

         #    Occupation            Energy/Eh            Energy/eV
      -------------------------------------------------------------
         1        2.0000           -0.7011754             -19.0800
       ...           ...                  ...                  ...
        12        2.0000           -0.5029942             -13.6872
        13        2.0000           -0.4892066             -13.3120
        14        2.0000           -0.4804803             -13.0745
        15        2.0000           -0.4801102             -13.0645
        16        2.0000           -0.4744112             -12.9094
        17        2.0000           -0.4680386             -12.7360
        18        2.0000           -0.4648846             -12.6502
        19        2.0000           -0.4452498             -12.1159
        20        2.0000           -0.4375485             -11.9063
        21        2.0000           -0.4274841             -11.6324
        22        2.0000           -0.4169322             -11.3453
        23        2.0000           -0.3861951             -10.5089
        24        2.0000           -0.3716768             -10.1138 (HOMO)
        25                         -0.2160244              -5.8783 (LUMO)
        26                         -0.2077962              -5.6544
        27                         -0.0892135              -2.4276
        28                          0.0626402               1.7045
        29                          0.0883612               2.4044
        30                          0.1119127               3.0453
        31                          0.1401874               3.8147
        32                          0.1497869               4.0759
        33                          0.1620523               4.4097
        34                          0.1764605               4.8017
        35                          0.1981217               5.3912
       ...                                ...                  ...
        46                          0.6315917              17.1865
      -------------------------------------------------------------
                  HL-Gap            0.1556524 Eh            4.2355 eV
             Fermi-level           -0.2938506 Eh           -7.9961 eV

     #   Z          covCN         q      C6AA      α(0)
     1   6 C        2.915    -0.059    29.476     8.903
     2   6 C        2.919    -0.049    29.221     8.864
     3   6 C        2.957    -0.027    28.675     8.783
     4   6 C        2.846     0.129    25.167     8.222
     5   6 C        2.916    -0.073    29.816     8.954
     6   6 C        2.961     0.009    27.806     8.649
     7   1 H        0.925     0.042     2.428     2.437
     8   8 O        1.659    -0.462    22.082     6.344
     9   1 H        0.805     0.355     0.577     1.193
    10   1 H        0.925     0.035     2.515     2.480
    11   1 H        0.925     0.033     2.544     2.494
    12   6 C        3.752    -0.116    22.774     6.805
    13   1 H        0.924     0.050     2.320     2.382
    14   1 H        0.924     0.050     2.320     2.382
    15   1 H        0.924     0.051     2.309     2.376
    16   6 C        3.753    -0.118    22.821     6.812
    17   1 H        0.924     0.050     2.326     2.385
    18   1 H        0.924     0.054     2.271     2.357
    19   1 H        0.924     0.047     2.363     2.404

 Mol. C6AA /au·bohr⁶  :       3686.102773
 Mol. C8AA /au·bohr⁸  :      86794.279189
 Mol. α(0) /au        :         95.227305


Wiberg/Mayer (AO) data.
largest (>0.10) Wiberg bond orders for each atom

 ---------------------------------------------------------------------------
     #   Z sym  total        # sym  WBO       # sym  WBO       # sym  WBO
 ---------------------------------------------------------------------------
     1   6 C    3.989 --     2 C    1.435     6 C    1.410    11 H    0.969
     2   6 C    3.990 --     1 C    1.435     3 C    1.425    10 H    0.969
                             5 C    0.104
     3   6 C    3.985 --     2 C    1.425     4 C    1.339    12 C    1.024
                             6 C    0.101
     4   6 C    3.935 --     5 C    1.392     3 C    1.339     8 O    1.057
     5   6 C    3.986 --     6 C    1.411     4 C    1.392     7 H    0.967
                             2 C    0.104
     6   6 C    3.988 --     5 C    1.411     1 C    1.410    16 C    1.026
                             3 C    0.101
     7   1 H    0.998 --     5 C    0.967
     8   8 O    2.066 --     4 C    1.057     9 H    0.849
     9   1 H    0.874 --     8 O    0.849
    10   1 H    0.999 --     2 C    0.969
    11   1 H    0.999 --     1 C    0.969
    12   6 C    3.995 --     3 C    1.024    15 H    0.983    13 H    0.970
                            14 H    0.970
    13   1 H    0.997 --    12 C    0.970
    14   1 H    0.997 --    12 C    0.970
    15   1 H    0.997 --    12 C    0.983
    16   6 C    3.995 --     6 C    1.026    19 H    0.985    17 H    0.977
                            18 H    0.968
    17   1 H    0.997 --    16 C    0.977
    18   1 H    0.997 --    16 C    0.968
    19   1 H    0.998 --    16 C    0.985
 ---------------------------------------------------------------------------

Topologies differ in total number of bonds
Writing topology from bond orders to xtbtopo.mol

molecular dipole:
                 x           y           z       tot (Debye)
 q only:       -0.425      -0.379       0.014
   full:       -0.565      -0.460       0.019       1.854
molecular quadrupole (traceless):
                xx          xy          yy          xz          yz          zz
 q only:        8.714       0.611      -5.324       0.119       0.015      -3.390
  q+dip:       10.804       1.164      -4.629       0.168       0.022      -6.176
   full:       10.154       0.952      -5.970       0.169       0.021      -4.183


           -------------------------------------------------
          | TOTAL ENERGY              -26.299062558035 Eh   |
          | GRADIENT NORM               0.020331116357 Eh/α |
          | HOMO-LUMO GAP               4.235517780757 eV   |
           -------------------------------------------------

------------------------------------------------------------------------
 * finished run on 2021/11/15 at 09:23:08.408     
------------------------------------------------------------------------
 total:
 * wall-time:     0 d,  0 h,  0 min,  0.031 sec
 *  cpu-time:     0 d,  0 h,  0 min,  0.031 sec
 * ratio c/w:     1.001 speedup
 SCF:
 * wall-time:     0 d,  0 h,  0 min,  0.008 sec
 *  cpu-time:     0 d,  0 h,  0 min,  0.000 sec
 * ratio c/w:     0.000 speedup

