      -----------------------------------------------------------      
     |                   =====================                   |     
     |                           x T B                           |     
     |                   =====================                   |     
     |                         S. Grimme                         |     
     |          Mulliken Center for Theoretical Chemistry        |     
     |                    University of Bonn                     |     
      -----------------------------------------------------------      

   * xtb version 6.4.1 (afa7bdf) compiled by 'ehlert@majestix' on 2021-06-10

   xtb is free software: you can redistribute it and/or modify it under
   the terms of the GNU Lesser General Public License as published by
   the Free Software Foundation, either version 3 of the License, or
   (at your option) any later version.
   
   xtb is distributed in the hope that it will be useful,
   but WITHOUT ANY WARRANTY; without even the implied warranty of
   MERCHANTABILITY or FITNESS FOR A PARTICULAR PURPOSE.  See the
   GNU Lesser General Public License for more details.
   
   Cite this work as:
   * C. Bannwarth, E. Caldeweyher, S. Ehlert, A. Hansen, P. Pracht,
     J. Seibert, S. Spicher, S. Grimme, WIREs Comput. Mol. Sci., 2020, 11,
     e01493. DOI: 10.1002/wcms.1493
   
   for GFN2-xTB:
   * C. Bannwarth, S. Ehlert and S. Grimme., J. Chem. Theory Comput., 2019,
     15, 1652-1671. DOI: 10.1021/acs.jctc.8b01176
   for GFN1-xTB:
   * S. Grimme, C. Bannwarth, P. Shushkov, J. Chem. Theory Comput., 2017,
     13, 1989-2009. DOI: 10.1021/acs.jctc.7b00118
   for GFN0-xTB:
   * P. Pracht, E. Caldeweyher, S. Ehlert, S. Grimme, ChemRxiv, 2019, preprint.
     DOI: 10.26434/chemrxiv.8326202.v1
   for GFN-FF:
   * S. Spicher and S. Grimme, Angew. Chem. Int. Ed., 2020, 59, 15665-15673.
     DOI: 10.1002/anie.202004239
   
   for DFT-D4:
   * E. Caldeweyher, C. Bannwarth and S. Grimme, J. Chem. Phys., 2017,
     147, 034112. DOI: 10.1063/1.4993215
   * E. Caldeweyher, S. Ehlert, A. Hansen, H. Neugebauer, S. Spicher,
     C. Bannwarth and S. Grimme, J. Chem. Phys., 2019, 150, 154122.
     DOI: 10.1063/1.5090222
   * E. Caldeweyher, J.-M. Mewes, S. Ehlert and S. Grimme, Phys. Chem. Chem. Phys.
     2020, 22, 8499-8512. DOI: 10.1039/D0CP00502A
   
   for sTDA-xTB:
   * S. Grimme and C. Bannwarth, J. Chem. Phys., 2016, 145, 054103.
     DOI: 10.1063/1.4959605
   
   in the mass-spec context:
   * V. Asgeirsson, C. Bauer and S. Grimme, Chem. Sci., 2017, 8, 4879.
     DOI: 10.1039/c7sc00601b
   * J. Koopman and S. Grimme, ACS Omega 2019, 4, 12, 15120-15133.
     DOI: 10.1021/acsomega.9b02011
   
   for metadynamics refer to:
   * S. Grimme, J. Chem. Theory Comput., 2019, 155, 2847-2862
     DOI: 10.1021/acs.jctc.9b00143
   
   for SPH calculations refer to:
   * S. Spicher and S. Grimme, J. Chem. Theory Comput., 2021, 17, 1701-1714
     DOI: 10.1021/acs.jctc.0c01306
   
   with help from (in alphabetical order)
   P. Atkinson, C. Bannwarth, F. Bohle, G. Brandenburg, E. Caldeweyher
   M. Checinski, S. Dohm, S. Ehlert, S. Ehrlich, I. Gerasimov, J. Koopman
   C. Lavigne, S. Lehtola, F. März, M. Müller, F. Musil, H. Neugebauer
   J. Pisarek, C. Plett, P. Pracht, J. Seibert, P. Shushkov, S. Spicher
   M. Stahn, M. Steiner, T. Strunk, J. Stückrath, T. Rose, and J. Unsleber
   
 * started run on 2021/11/15 at 09:23:07.636     

           -------------------------------------------------
          |                Calculation Setup                |
           -------------------------------------------------

          program call               : xtb 05_3-methoxyphenol.xyz --gfn2 --chrg 0 --uhf 0 --alpb water -P 1
          coordinate file            : 05_3-methoxyphenol.xyz
          omp threads                :                     1
          number of atoms            :                    17
          number of electrons        :                    48
          charge                     :                     0
          spin                       :                   0.0
          first test random number   :      0.23020897785563

   ID    Z sym.   atoms
    1    6 C      1-6, 14
    2    1 H      7, 8, 10-12, 15-17
    3    8 O      9, 13

           -------------------------------------------------
          |                 G F N 2 - x T B                 |
           -------------------------------------------------

        Reference                      10.1021/acs.jctc.8b01176
      * Hamiltonian:
        H0-scaling (s, p, d)           1.850000    2.230000    2.230000
        zeta-weighting                 0.500000
      * Dispersion:
        s8                             2.700000
        a1                             0.520000
        a2                             5.000000
        s9                             5.000000
      * Repulsion:
        kExp                           1.500000    1.000000
        rExp                           1.000000
      * Coulomb:
        alpha                          2.000000
        third order                    shell-resolved
        anisotropic                    true
        a3                             3.000000
        a5                             4.000000
        cn-shift                       1.200000
        cn-exp                         4.000000
        max-rad                        5.000000

      * Solvation model:               ALPB
        Solvent                        water
        Parameter file                 internal GFN2-xTB/ALPB
        Dielectric constant                8.0200E+01
        Reference state                gsolv [1 M gas/solution]
        Free energy shift                  1.0808E-03 Eh       6.7819E-01 kcal/mol
        Temperature                        2.9815E+02 K
        Density                            1.0000E+00 kg/L
        Solvent mass                       1.8000E+01 g/mol
        Interaction kernel             P16
        Born radius scaling (c1)           1.4744E+00
        Born radii integrator          GBOBC
        Born offset                        0.0000E+00 a0       0.0000E+00 AA
        H-bond correction              true
        Ion screening                  false
        Surface tension                    1.0000E-05 Eh       1.5569E+01 dyn/cm
        Grid points                               230 per atom
q/qsh data taken from xtbrestart
CAMM data taken from xtbrestart

          ...................................................
          :                      SETUP                      :
          :.................................................:
          :  # basis functions                  44          :
          :  # atomic orbitals                  44          :
          :  # shells                           26          :
          :  # electrons                        48          :
          :  max. iterations                   250          :
          :  Hamiltonian                  GFN2-xTB          :
          :  restarted?                       true          :
          :  GBSA solvation                   true          :
          :  PC potential                    false          :
          :  electronic temp.          300.0000000     K    :
          :  accuracy                    1.0000000          :
          :  -> integral cutoff          0.2500000E+02      :
          :  -> integral neglect         0.1000000E-07      :
          :  -> SCF convergence          0.1000000E-05 Eh   :
          :  -> wf. convergence          0.1000000E-03 e    :
          :  Broyden damping             0.4000000          :
          ...................................................

 iter      E             dE          RMSdq      gap      omega  full diag
   1    -27.5524557 -0.275525E+02  0.977E-05    4.20       0.0  T
   2    -27.5524557 -0.393179E-10  0.580E-05    4.20     418.1  T
   3    -27.5524557 -0.157527E-10  0.355E-05    4.20     683.4  T

   *** convergence criteria satisfied after 3 iterations ***

         #    Occupation            Energy/Eh            Energy/eV
      -------------------------------------------------------------
         1        2.0000           -0.7158260             -19.4786
       ...           ...                  ...                  ...
        18        2.0000           -0.4705875             -12.8053
        19        2.0000           -0.4645183             -12.6402
        20        2.0000           -0.4398776             -11.9697
        21        2.0000           -0.4374692             -11.9041
        22        2.0000           -0.4271307             -11.6228
        23        2.0000           -0.3895221             -10.5994
        24        2.0000           -0.3761475             -10.2355 (HOMO)
        25                         -0.2217163              -6.0332 (LUMO)
        26                         -0.2106537              -5.7322
        27                         -0.0903958              -2.4598
        28                          0.0145298               0.3954
        29                          0.0774064               2.1063
       ...                                ...                  ...
        44                          0.6501372              17.6911
      -------------------------------------------------------------
                  HL-Gap            0.1544312 Eh            4.2023 eV
             Fermi-level           -0.2989319 Eh           -8.1344 eV

 SCC (total)                   0 d,  0 h,  0 min,  0.008 sec
 SCC setup                      ...        0 min,  0.000 sec (  5.962%)
 Dispersion                     ...        0 min,  0.000 sec (  1.877%)
 classical contributions        ...        0 min,  0.000 sec (  0.324%)
 integral evaluation            ...        0 min,  0.002 sec ( 23.121%)
 iterations                     ...        0 min,  0.002 sec ( 28.809%)
 molecular gradient             ...        0 min,  0.003 sec ( 37.561%)
 printout                       ...        0 min,  0.000 sec (  2.056%)

         :::::::::::::::::::::::::::::::::::::::::::::::::::::
         ::                     SUMMARY                     ::
         :::::::::::::::::::::::::::::::::::::::::::::::::::::
         :: total energy             -27.195308296787 Eh    ::
         :: total w/o Gsasa/hb       -27.190683939673 Eh    ::
         :: gradient norm              0.021912227603 Eh/a0 ::
         :: HOMO-LUMO gap              4.202285576335 eV    ::
         ::.................................................::
         :: SCC energy               -27.552455687148 Eh    ::
         :: -> isotropic ES            0.046335274648 Eh    ::
         :: -> anisotropic ES          0.003411196365 Eh    ::
         :: -> anisotropic XC          0.007683802436 Eh    ::
         :: -> dispersion             -0.012560146161 Eh    ::
         :: -> Gsolv                  -0.010872661242 Eh    ::
         ::    -> Gelec               -0.006248304127 Eh    ::
         ::    -> Gsasa                0.000820502617 Eh    ::
         ::    -> Ghb                 -0.006525619430 Eh    ::
         ::    -> Gshift               0.001080759698 Eh    ::
         :: repulsion energy           0.357135717974 Eh    ::
         :: add. restraining           0.000000000000 Eh    ::
         :: total charge              -0.000000000000 e     ::
         :::::::::::::::::::::::::::::::::::::::::::::::::::::

           -------------------------------------------------
          |                Property Printout                |
           -------------------------------------------------

    * Orbital Energies and Occupations

         #    Occupation            Energy/Eh            Energy/eV
      -------------------------------------------------------------
         1        2.0000           -0.7158260             -19.4786
       ...           ...                  ...                  ...
        12        2.0000           -0.5250824             -14.2882
        13        2.0000           -0.5170520             -14.0697
        14        2.0000           -0.5136172             -13.9762
        15        2.0000           -0.5107697             -13.8988
        16        2.0000           -0.4809213             -13.0865
        17        2.0000           -0.4729589             -12.8699
        18        2.0000           -0.4705875             -12.8053
        19        2.0000           -0.4645183             -12.6402
        20        2.0000           -0.4398776             -11.9697
        21        2.0000           -0.4374692             -11.9041
        22        2.0000           -0.4271307             -11.6228
        23        2.0000           -0.3895221             -10.5994
        24        2.0000           -0.3761475             -10.2355 (HOMO)
        25                         -0.2217163              -6.0332 (LUMO)
        26                         -0.2106537              -5.7322
        27                         -0.0903958              -2.4598
        28                          0.0145298               0.3954
        29                          0.0774064               2.1063
        30                          0.1090136               2.9664
        31                          0.1162500               3.1633
        32                          0.1396245               3.7994
        33                          0.1667257               4.5368
        34                          0.1770689               4.8183
        35                          0.1936391               5.2692
       ...                                ...                  ...
        44                          0.6501372              17.6911
      -------------------------------------------------------------
                  HL-Gap            0.1544312 Eh            4.2023 eV
             Fermi-level           -0.2989319 Eh           -8.1344 eV

     #   Z          covCN         q      C6AA      α(0)
     1   6 C        2.908    -0.085    30.119     8.999
     2   6 C        2.861     0.139    24.956     8.188
     3   6 C        2.911    -0.102    30.583     9.068
     4   6 C        2.844     0.143    24.888     8.176
     5   6 C        2.909    -0.073    29.831     8.956
     6   6 C        2.919    -0.039    28.971     8.826
     7   1 H        0.925     0.051     2.305     2.374
     8   1 H        0.925     0.047     2.354     2.399
     9   8 O        1.659    -0.459    22.026     6.336
    10   1 H        0.805     0.371     0.541     1.155
    11   1 H        0.926     0.048     2.340     2.392
    12   1 H        0.925     0.053     2.287     2.365
    13   8 O        1.703    -0.305    19.072     5.896
    14   6 C        3.639     0.020    20.604     6.529
    15   1 H        0.924     0.055     2.258     2.350
    16   1 H        0.924     0.080     1.979     2.200
    17   1 H        0.924     0.055     2.258     2.350

 Mol. C6AA /au·bohr⁶  :       3198.407948
 Mol. C8AA /au·bohr⁸  :      75549.943763
 Mol. α(0) /au        :         88.559760


Wiberg/Mayer (AO) data.
largest (>0.10) Wiberg bond orders for each atom

 ---------------------------------------------------------------------------
     #   Z sym  total        # sym  WBO       # sym  WBO       # sym  WBO
 ---------------------------------------------------------------------------
     1   6 C    3.982 --     6 C    1.425     2 C    1.375    11 H    0.965
     2   6 C    3.933 --     1 C    1.375     3 C    1.357    13 O    1.057
     3   6 C    3.976 --     4 C    1.399     2 C    1.357    12 H    0.963
                             6 C    0.103
     4   6 C    3.940 --     3 C    1.399     5 C    1.349     9 O    1.070
     5   6 C    3.985 --     6 C    1.462     4 C    1.349     7 H    0.968
     6   6 C    3.990 --     5 C    1.462     1 C    1.425     8 H    0.970
                             3 C    0.103
     7   1 H    0.997 --     5 C    0.968
     8   1 H    0.998 --     6 C    0.970
     9   8 O    2.071 --     4 C    1.070    10 H    0.843
    10   1 H    0.862 --     9 O    0.843
    11   1 H    0.998 --     1 C    0.965
    12   1 H    0.997 --     3 C    0.963
    13   8 O    2.205 --     2 C    1.057    14 C    0.969
    14   6 C    3.930 --    16 H    0.978    15 H    0.977    17 H    0.977
                            13 O    0.969
    15   1 H    0.997 --    14 C    0.977
    16   1 H    0.993 --    14 C    0.978
    17   1 H    0.997 --    14 C    0.977
 ---------------------------------------------------------------------------

Topologies differ in total number of bonds
Writing topology from bond orders to xtbtopo.mol

molecular dipole:
                 x           y           z       tot (Debye)
 q only:       -0.692      -0.084       0.000
   full:       -0.835      -0.128       0.000       2.148
molecular quadrupole (traceless):
                xx          xy          yy          xz          yz          zz
 q only:        1.365      -5.156       2.538       0.006      -0.002      -3.903
  q+dip:       -0.262      -5.594       5.660       0.005      -0.001      -5.398
   full:       -0.533      -6.000       4.300       0.006      -0.002      -3.768


           -------------------------------------------------
          | TOTAL ENERGY              -27.195308296787 Eh   |
          | GRADIENT NORM               0.021912227603 Eh/α |
          | HOMO-LUMO GAP               4.202285576335 eV   |
           -------------------------------------------------

------------------------------------------------------------------------
 * finished run on 2021/11/15 at 09:23:07.668     
------------------------------------------------------------------------
 total:
 * wall-time:     0 d,  0 h,  0 min,  0.031 sec
 *  cpu-time:     0 d,  0 h,  0 min,  0.016 sec
 * ratio c/w:     0.502 speedup
 SCF:
 * wall-time:     0 d,  0 h,  0 min,  0.008 sec
 *  cpu-time:     0 d,  0 h,  0 min,  0.016 sec
 * ratio c/w:     1.954 speedup

