      -----------------------------------------------------------      
     |                   =====================                   |     
     |                           x T B                           |     
     |                   =====================                   |     
     |                         S. Grimme                         |     
     |          Mulliken Center for Theoretical Chemistry        |     
     |                    University of Bonn                     |     
      -----------------------------------------------------------      

   * xtb version 6.4.1 (afa7bdf) compiled by 'ehlert@majestix' on 2021-06-10

   xtb is free software: you can redistribute it and/or modify it under
   the terms of the GNU Lesser General Public License as published by
   the Free Software Foundation, either version 3 of the License, or
   (at your option) any later version.
   
   xtb is distributed in the hope that it will be useful,
   but WITHOUT ANY WARRANTY; without even the implied warranty of
   MERCHANTABILITY or FITNESS FOR A PARTICULAR PURPOSE.  See the
   GNU Lesser General Public License for more details.
   
   Cite this work as:
   * C. Bannwarth, E. Caldeweyher, S. Ehlert, A. Hansen, P. Pracht,
     J. Seibert, S. Spicher, S. Grimme, WIREs Comput. Mol. Sci., 2020, 11,
     e01493. DOI: 10.1002/wcms.1493
   
   for GFN2-xTB:
   * C. Bannwarth, S. Ehlert and S. Grimme., J. Chem. Theory Comput., 2019,
     15, 1652-1671. DOI: 10.1021/acs.jctc.8b01176
   for GFN1-xTB:
   * S. Grimme, C. Bannwarth, P. Shushkov, J. Chem. Theory Comput., 2017,
     13, 1989-2009. DOI: 10.1021/acs.jctc.7b00118
   for GFN0-xTB:
   * P. Pracht, E. Caldeweyher, S. Ehlert, S. Grimme, ChemRxiv, 2019, preprint.
     DOI: 10.26434/chemrxiv.8326202.v1
   for GFN-FF:
   * S. Spicher and S. Grimme, Angew. Chem. Int. Ed., 2020, 59, 15665-15673.
     DOI: 10.1002/anie.202004239
   
   for DFT-D4:
   * E. Caldeweyher, C. Bannwarth and S. Grimme, J. Chem. Phys., 2017,
     147, 034112. DOI: 10.1063/1.4993215
   * E. Caldeweyher, S. Ehlert, A. Hansen, H. Neugebauer, S. Spicher,
     C. Bannwarth and S. Grimme, J. Chem. Phys., 2019, 150, 154122.
     DOI: 10.1063/1.5090222
   * E. Caldeweyher, J.-M. Mewes, S. Ehlert and S. Grimme, Phys. Chem. Chem. Phys.
     2020, 22, 8499-8512. DOI: 10.1039/D0CP00502A
   
   for sTDA-xTB:
   * S. Grimme and C. Bannwarth, J. Chem. Phys., 2016, 145, 054103.
     DOI: 10.1063/1.4959605
   
   in the mass-spec context:
   * V. Asgeirsson, C. Bauer and S. Grimme, Chem. Sci., 2017, 8, 4879.
     DOI: 10.1039/c7sc00601b
   * J. Koopman and S. Grimme, ACS Omega 2019, 4, 12, 15120-15133.
     DOI: 10.1021/acsomega.9b02011
   
   for metadynamics refer to:
   * S. Grimme, J. Chem. Theory Comput., 2019, 155, 2847-2862
     DOI: 10.1021/acs.jctc.9b00143
   
   for SPH calculations refer to:
   * S. Spicher and S. Grimme, J. Chem. Theory Comput., 2021, 17, 1701-1714
     DOI: 10.1021/acs.jctc.0c01306
   
   with help from (in alphabetical order)
   P. Atkinson, C. Bannwarth, F. Bohle, G. Brandenburg, E. Caldeweyher
   M. Checinski, S. Dohm, S. Ehlert, S. Ehrlich, I. Gerasimov, J. Koopman
   C. Lavigne, S. Lehtola, F. März, M. Müller, F. Musil, H. Neugebauer
   J. Pisarek, C. Plett, P. Pracht, J. Seibert, P. Shushkov, S. Spicher
   M. Stahn, M. Steiner, T. Strunk, J. Stückrath, T. Rose, and J. Unsleber
   
 * started run on 2021/11/15 at 09:36:22.888     

           -------------------------------------------------
          |                Calculation Setup                |
           -------------------------------------------------

          program call               : xtb 36_1,4-dimethoxybenzene.xyz --gfn2 --chrg 0 --uhf 0 --alpb water --ohess -P 1
          coordinate file            : 36_1,4-dimethoxybenzene.xyz
          omp threads                :                     1
          number of atoms            :                    20
          number of electrons        :                    54
          charge                     :                     0
          spin                       :                   0.0
          first test random number   :      0.06026400864238

   ID    Z sym.   atoms
    1    6 C      1-6, 10, 16
    2    1 H      7, 8, 11-14, 17-20
    3    8 O      9, 15

           -------------------------------------------------
          |                 G F N 2 - x T B                 |
           -------------------------------------------------

        Reference                      10.1021/acs.jctc.8b01176
      * Hamiltonian:
        H0-scaling (s, p, d)           1.850000    2.230000    2.230000
        zeta-weighting                 0.500000
      * Dispersion:
        s8                             2.700000
        a1                             0.520000
        a2                             5.000000
        s9                             5.000000
      * Repulsion:
        kExp                           1.500000    1.000000
        rExp                           1.000000
      * Coulomb:
        alpha                          2.000000
        third order                    shell-resolved
        anisotropic                    true
        a3                             3.000000
        a5                             4.000000
        cn-shift                       1.200000
        cn-exp                         4.000000
        max-rad                        5.000000

      * Solvation model:               ALPB
        Solvent                        water
        Parameter file                 internal GFN2-xTB/ALPB
        Dielectric constant                8.0200E+01
        Reference state                gsolv [1 M gas/solution]
        Free energy shift                  1.0808E-03 Eh       6.7819E-01 kcal/mol
        Temperature                        2.9815E+02 K
        Density                            1.0000E+00 kg/L
        Solvent mass                       1.8000E+01 g/mol
        Interaction kernel             P16
        Born radius scaling (c1)           1.4744E+00
        Born radii integrator          GBOBC
        Born offset                        0.0000E+00 a0       0.0000E+00 AA
        H-bond correction              true
        Ion screening                  false
        Surface tension                    1.0000E-05 Eh       1.5569E+01 dyn/cm
        Grid points                               230 per atom

          ...................................................
          :                      SETUP                      :
          :.................................................:
          :  # basis functions                  50          :
          :  # atomic orbitals                  50          :
          :  # shells                           30          :
          :  # electrons                        54          :
          :  max. iterations                   250          :
          :  Hamiltonian                  GFN2-xTB          :
          :  restarted?                      false          :
          :  GBSA solvation                   true          :
          :  PC potential                    false          :
          :  electronic temp.          300.0000000     K    :
          :  accuracy                    1.0000000          :
          :  -> integral cutoff          0.2500000E+02      :
          :  -> integral neglect         0.1000000E-07      :
          :  -> SCF convergence          0.1000000E-05 Eh   :
          :  -> wf. convergence          0.1000000E-03 e    :
          :  Broyden damping             0.4000000          :
          ...................................................

 iter      E             dE          RMSdq      gap      omega  full diag
   1    -30.7123709 -0.307124E+02  0.480E+00    3.75       0.0  T
   2    -30.7427617 -0.303908E-01  0.262E+00    3.79       1.0  T
   3    -30.7425181  0.243544E-03  0.706E-01    3.60       1.0  T
   4    -30.7439379 -0.141973E-02  0.218E-01    3.77       1.0  T
   5    -30.7443046 -0.366776E-03  0.764E-02    3.74       1.0  T
   6    -30.7443073 -0.262571E-05  0.235E-02    3.75       1.0  T
   7    -30.7443079 -0.598544E-06  0.571E-03    3.75       3.9  T
   8    -30.7443081 -0.231881E-06  0.319E-03    3.75       7.0  T
   9    -30.7443081 -0.208936E-07  0.486E-04    3.75      46.0  T
  10    -30.7443081 -0.440945E-09  0.212E-04    3.75     105.7  T

   *** convergence criteria satisfied after 10 iterations ***

         #    Occupation            Energy/Eh            Energy/eV
      -------------------------------------------------------------
         1        2.0000           -0.7131130             -19.4048
       ...           ...                  ...                  ...
        21        2.0000           -0.4627942             -12.5933
        22        2.0000           -0.4544550             -12.3663
        23        2.0000           -0.4530591             -12.3284
        24        2.0000           -0.4249117             -11.5624
        25        2.0000           -0.4201064             -11.4317
        26        2.0000           -0.4055884             -11.0366
        27        2.0000           -0.3657783              -9.9533 (HOMO)
        28                         -0.2280974              -6.2068 (LUMO)
        29                         -0.2076296              -5.6499
        30                         -0.0915671              -2.4917
        31                          0.0114612               0.3119
        32                          0.0264159               0.7188
       ...                                ...                  ...
        50                          0.6410648              17.4443
      -------------------------------------------------------------
                  HL-Gap            0.1376809 Eh            3.7465 eV
             Fermi-level           -0.2969379 Eh           -8.0801 eV

 SCC (total)                   0 d,  0 h,  0 min,  0.012 sec
 SCC setup                      ...        0 min,  0.001 sec (  4.839%)
 Dispersion                     ...        0 min,  0.000 sec (  1.253%)
 classical contributions        ...        0 min,  0.000 sec (  0.257%)
 integral evaluation            ...        0 min,  0.002 sec ( 14.662%)
 iterations                     ...        0 min,  0.005 sec ( 38.657%)
 molecular gradient             ...        0 min,  0.005 sec ( 38.304%)
 printout                       ...        0 min,  0.000 sec (  1.807%)

         :::::::::::::::::::::::::::::::::::::::::::::::::::::
         ::                     SUMMARY                     ::
         :::::::::::::::::::::::::::::::::::::::::::::::::::::
         :: total energy             -30.348233855222 Eh    ::
         :: total w/o Gsasa/hb       -30.347939592427 Eh    ::
         :: gradient norm              0.019436183061 Eh/a0 ::
         :: HOMO-LUMO gap              3.746487695212 eV    ::
         ::.................................................::
         :: SCC energy               -30.744308110385 Eh    ::
         :: -> isotropic ES            0.037518018498 Eh    ::
         :: -> anisotropic ES          0.004186082745 Eh    ::
         :: -> anisotropic XC          0.009414418940 Eh    ::
         :: -> dispersion             -0.014983689666 Eh    ::
         :: -> Gsolv                  -0.005490872060 Eh    ::
         ::    -> Gelec               -0.005196609265 Eh    ::
         ::    -> Gsasa                0.000137286042 Eh    ::
         ::    -> Ghb                 -0.001512308535 Eh    ::
         ::    -> Gshift               0.001080759698 Eh    ::
         :: repulsion energy           0.396102956882 Eh    ::
         :: add. restraining           0.000000000000 Eh    ::
         :: total charge              -0.000000000000 e     ::
         :::::::::::::::::::::::::::::::::::::::::::::::::::::

      ----------------------------------------------------------- 
     |                   =====================                   |
     |                        A N C O P T                        |
     |                   =====================                   |
     |               Approximate Normal Coordinate               |
     |                Rational Function Optimizer                |
      ----------------------------------------------------------- 

          ...................................................
          :                      SETUP                      :
          :.................................................:
          :   optimization level            normal          :
          :   max. optcycles                   200          :
          :   ANC micro-cycles                  20          :
          :   degrees of freedom                54          :
          :.................................................:
          :   RF solver                   davidson          :
          :   write xtbopt.log                true          :
          :   linear?                        false          :
          :   energy convergence         0.5000000E-05 Eh   :
          :   grad. convergence          0.1000000E-02 Eh/α :
          :   maximium RF displ.         1.0000000          :
          :   Hlow (freq-cutoff)         0.1000000E-01      :
          :   Hmax (freq-cutoff)         5.0000000          :
          :   S6 in model hess.         20.0000000          :
          ...................................................

generating ANC from model Hessian ...
Using Lindh-Hessian (1995)
 Shifting diagonal of input Hessian by   8.960790369403214E-003
 Lowest  eigenvalues of input Hessian
    0.000000    0.000000    0.000000    0.000000    0.000000    0.000000
    0.010000    0.013060    0.013420    0.014925    0.016571    0.017974
    0.023860    0.026118    0.035351    0.042008    0.044826    0.048579
 Highest eigenvalues
    1.552740    1.611492    1.838762    1.888464    1.992406    2.102449
 

........................................................................
.............................. CYCLE    1 ..............................
........................................................................
   1    -30.7443081 -0.307443E+02  0.410E-05    3.75       0.0  T
   2    -30.7443081 -0.332179E-11  0.247E-05    3.75     903.8  T
   3    -30.7443081 -0.657252E-12  0.119E-05    3.75    1880.6  T
     SCC iter.                  ...        0 min,  0.003 sec
     gradient                   ...        0 min,  0.004 sec
 * total energy  :   -30.3482339 Eh     change       -0.1022329E-09 Eh
   gradient norm :     0.0194374 Eh/α   predicted     0.0000000E+00 (-100.00%)
   displ. norm   :     0.0976044 α      lambda       -0.1188044E-02
   maximum displ.:     0.0672866 α      in ANC's #11, #28, #33, ...

........................................................................
.............................. CYCLE    2 ..............................
........................................................................
   1    -30.7581129 -0.307581E+02  0.888E-02    3.79       0.0  T
   2    -30.7581139 -0.980744E-06  0.530E-02    3.80       1.0  T
   3    -30.7581140 -0.109867E-06  0.507E-03    3.80       4.4  T
   4    -30.7581142 -0.239637E-06  0.207E-03    3.80      10.8  T
   5    -30.7581142 -0.133445E-07  0.753E-04    3.80      29.7  T
   6    -30.7581142 -0.983945E-09  0.364E-04    3.80      61.4  T
     SCC iter.                  ...        0 min,  0.003 sec
     gradient                   ...        0 min,  0.004 sec
 * total energy  :   -30.3489543 Eh     change       -0.7204131E-03 Eh
   gradient norm :     0.0050135 Eh/α   predicted    -0.5996824E-03 ( -16.76%)
   displ. norm   :     0.0396262 α      lambda       -0.8774268E-04
   maximum displ.:     0.0261205 α      in ANC's #11, #6, #28, ...

........................................................................
.............................. CYCLE    3 ..............................
........................................................................
   1    -30.7615878 -0.307616E+02  0.309E-02    3.80       0.0  T
   2    -30.7615882 -0.385274E-06  0.184E-02    3.81       1.2  T
   3    -30.7615881  0.441370E-07  0.321E-03    3.81       7.0  T
   4    -30.7615882 -0.103338E-06  0.888E-04    3.81      25.2  T
   5    -30.7615882 -0.474952E-08  0.372E-04    3.81      60.0  T
     SCC iter.                  ...        0 min,  0.003 sec
     gradient                   ...        0 min,  0.004 sec
 * total energy  :   -30.3490033 Eh     change       -0.4903776E-04 Eh
   gradient norm :     0.0016607 Eh/α   predicted    -0.4397778E-04 ( -10.32%)
   displ. norm   :     0.0240428 α      lambda       -0.6908418E-05
   maximum displ.:     0.0213997 α      in ANC's #6, #11, #13, ...

........................................................................
.............................. CYCLE    4 ..............................
........................................................................
   1    -30.7616588 -0.307617E+02  0.144E-02    3.80       0.0  T
   2    -30.7616589 -0.157732E-06  0.863E-03    3.80       2.6  T
   3    -30.7616589  0.249482E-07  0.208E-03    3.80      10.7  T
   4    -30.7616590 -0.423150E-07  0.449E-04    3.80      49.8  T
   5    -30.7616590 -0.160566E-08  0.165E-04    3.80     135.5  T
     SCC iter.                  ...        0 min,  0.003 sec
     gradient                   ...        0 min,  0.004 sec
 * total energy  :   -30.3490092 Eh     change       -0.5854626E-05 Eh
   gradient norm :     0.0004746 Eh/α   predicted    -0.3515660E-05 ( -39.95%)
   displ. norm   :     0.0070726 α      lambda       -0.9154861E-06
   maximum displ.:     0.0063413 α      in ANC's #6, #28, #17, ...

........................................................................
.............................. CYCLE    5 ..............................
........................................................................
   1    -30.7611835 -0.307612E+02  0.401E-03    3.80       0.0  T
   2    -30.7611835 -0.151119E-08  0.240E-03    3.80       9.3  T
   3    -30.7611835  0.628553E-09  0.282E-04    3.80      79.3  T
   4    -30.7611835 -0.113921E-08  0.695E-05    3.80     321.8  T
     SCC iter.                  ...        0 min,  0.003 sec
     gradient                   ...        0 min,  0.006 sec
 * total energy  :   -30.3490098 Eh     change       -0.6590424E-06 Eh
   gradient norm :     0.0001706 Eh/α   predicted    -0.4903807E-06 ( -25.59%)
   displ. norm   :     0.0009083 α      lambda       -0.4307464E-07
   maximum displ.:     0.0007206 α      in ANC's #11, #6, #17, ...

   *** GEOMETRY OPTIMIZATION CONVERGED AFTER 5 ITERATIONS ***

------------------------------------------------------------------------
 total energy gain   :        -0.0007760 Eh       -0.4869 kcal/mol
 total RMSD          :         0.0341786 a0        0.0181 Å
 total power (kW/mol):        -0.4074590 (step)  -36.9363 (real)
------------------------------------------------------------------------

 ANCopt (total)                0 d,  0 h,  0 min,  0.055 sec
 optimizer setup                ...        0 min,  0.000 sec (  0.407%)
 model hessian                  ...        0 min,  0.003 sec (  5.368%)
 ANC generation                 ...        0 min,  0.001 sec (  0.941%)
 coordinate transformation      ...        0 min,  0.000 sec (  0.089%)
 single point calculation       ...        0 min,  0.050 sec ( 89.873%)
 optimization log               ...        0 min,  0.001 sec (  2.062%)
 hessian update                 ...        0 min,  0.000 sec (  0.069%)
 rational function              ...        0 min,  0.000 sec (  0.586%)

================
 final structure:
================
20
 xtb: 6.4.1 (afa7bdf)
C        -0.92581590927137   -1.03638455491896    0.00000023483420
C        -1.36845447116893    0.28231100169361    0.00000032486729
C        -0.42853271785257    1.30910009518779   -0.00000004199778
C         0.92581600685615    1.03638455828814   -0.00000034288254
C         1.36845456837044   -0.28231099835491   -0.00000032534711
C         0.42853281536461   -1.30910009185823   -0.00000002073626
H         0.78183825509741   -2.32791182344601    0.00000007324842
H        -1.62172146148584   -1.85911450772419    0.00000040837554
O        -2.68128812091466    0.67113850731630    0.00000072236246
C        -3.67995206536245   -0.33026467153678    0.00000039587991
H        -3.61350468353047   -0.95535960136031    0.89449428110211
H        -4.62467544425822    0.20876724492551    0.00000059598650
H        -3.61350471175222   -0.95535895985070   -0.89449395015447
H        -0.78183815695536    2.32791182709681    0.00000006714050
O         2.68128821802198   -0.67113850664392   -0.00000033494543
C         3.67995216764385    0.33026466851558    0.00000003941715
H         4.62467554453884   -0.20876725248425    0.00000015382054
H         3.61350499099964    0.95535942716422   -0.89449398764392
H         3.61350461617913    0.95535912718945    0.89449424903022
H         1.62172155948006    1.85911451080086   -0.00000054235733
 
 Bond Distances (Angstroems)
 ---------------------------
C1-C2=1.3910         C1-C6=1.3815         C1-H8=1.0776         C2-C1=1.3910         C2-C3=1.3920         C2-O9=1.3692         
C3-C2=1.3920         C3-C4=1.3815         C3-H14=1.0783        C4-C3=1.3815         C4-C5=1.3910         C4-H20=1.0776        
C5-C4=1.3910         C5-C6=1.3920         C5-O15=1.3692        C6-C1=1.3815         C6-C5=1.3920         C6-H7=1.0783         
H7-C6=1.0783         H8-C1=1.0776         O9-C2=1.3692         O9-C10=1.4143        C10-O9=1.4143        C10-H11=1.0933       
C10-H12=1.0877       C10-H13=1.0933       H11-C10=1.0933       H12-C10=1.0877       H13-C10=1.0933       H14-C3=1.0783        
O15-C5=1.3692        O15-C16=1.4143       C16-O15=1.4143       C16-H17=1.0877       C16-H18=1.0933       C16-H19=1.0933       
H17-C16=1.0877       H18-C16=1.0933       H19-C16=1.0933       H20-C4=1.0776        
 C  H  Rav=1.0860 sigma=0.0069  Rmin=1.0776  Rmax=1.0933    10
 C  C  Rav=1.3882 sigma=0.0047  Rmin=1.3815  Rmax=1.3920     6
 O  C  Rav=1.3917 sigma=0.0225  Rmin=1.3692  Rmax=1.4143     4
 
 selected bond angles (degree)
 --------------------
C6-C1-C2=119.94                H8-C1-C2=121.22                H8-C1-C6=118.84                C3-C2-C1=118.97                
O9-C2-C1=125.05                O9-C2-C3=115.97                C4-C3-C2=121.09                H14-C3-C2=118.40               
H14-C3-C4=120.51               C5-C4-C3=119.94                H20-C4-C3=118.84               H20-C4-C5=121.22               
C6-C5-C4=118.97                O15-C5-C4=125.05               O15-C5-C6=115.97               C5-C6-C1=121.09                
H7-C6-C1=120.51                H7-C6-C5=118.40                C10-O9-C2=118.42               H11-C10-O9=111.22              
H12-C10-O9=105.21              H12-C10-H11=109.64             H13-C10-O9=111.22              H13-C10-H11=109.80             
H13-C10-H12=109.64             
 
 selected dihedral angles (degree)
 ---------------------------------
C3-C2-C1-C6=  0.00            C3-C2-C1-H8=180.00            O9-C2-C1-C6=180.00            O9-C2-C1-H8=  0.00            
C4-C3-C2-C1=  0.00            C4-C3-C2-O9=180.00            H14-C3-C2-C1=180.00           H14-C3-C2-O9=  0.00           
C5-C4-C3-C2=  0.00            C5-C4-C3-H14=180.00           H20-C4-C3-C2=180.00           H20-C4-C3-H14=  0.00          
C6-C5-C4-C3=  0.00            C6-C5-C4-H20=180.00           O15-C5-C4-C3=180.00           O15-C5-C4-H20=  0.00          
C5-C6-C1-C2=  0.00            C5-C6-C1-H8=180.00            H7-C6-C1-C2=180.00            H7-C6-C1-H8=  0.00            
C1-C6-C5-C4=  0.00            C1-C6-C5-O15=180.00           H7-C6-C5-C4=180.00            H7-C6-C5-O15=  0.00           
C10-O9-C2-C1=  0.00           C10-O9-C2-C3=180.00           H11-C10-O9-C2= 61.36          H12-C10-O9-C2=180.00          
H13-C10-O9-C2=298.64          
           -------------------------------------------------
          |                Final Singlepoint                |
           -------------------------------------------------

          ...................................................
          :                      SETUP                      :
          :.................................................:
          :  # basis functions                  50          :
          :  # atomic orbitals                  50          :
          :  # shells                           30          :
          :  # electrons                        54          :
          :  max. iterations                   250          :
          :  Hamiltonian                  GFN2-xTB          :
          :  restarted?                      false          :
          :  GBSA solvation                   true          :
          :  PC potential                    false          :
          :  electronic temp.          300.0000000     K    :
          :  accuracy                    1.0000000          :
          :  -> integral cutoff          0.2500000E+02      :
          :  -> integral neglect         0.1000000E-07      :
          :  -> SCF convergence          0.1000000E-05 Eh   :
          :  -> wf. convergence          0.1000000E-03 e    :
          :  Broyden damping             0.4000000          :
          ...................................................

 iter      E             dE          RMSdq      gap      omega  full diag
   1    -30.7611835 -0.307612E+02  0.252E-05    3.80       0.0  T
   2    -30.7611835 -0.383693E-12  0.147E-05    3.80    1518.7  T
   3    -30.7611835  0.156319E-12  0.554E-06    3.80    4035.8  T

   *** convergence criteria satisfied after 3 iterations ***

         #    Occupation            Energy/Eh            Energy/eV
      -------------------------------------------------------------
         1        2.0000           -0.7145460             -19.4438
       ...           ...                  ...                  ...
        21        2.0000           -0.4631123             -12.6019
        22        2.0000           -0.4539042             -12.3514
        23        2.0000           -0.4525344             -12.3141
        24        2.0000           -0.4250758             -11.5669
        25        2.0000           -0.4192346             -11.4080
        26        2.0000           -0.4071205             -11.0783
        27        2.0000           -0.3653029              -9.9404 (HOMO)
        28                         -0.2255778              -6.1383 (LUMO)
        29                         -0.2062429              -5.6122
        30                         -0.0871479              -2.3714
        31                          0.0192962               0.5251
        32                          0.0351422               0.9563
       ...                                ...                  ...
        50                          0.6633646              18.0511
      -------------------------------------------------------------
                  HL-Gap            0.1397251 Eh            3.8021 eV
             Fermi-level           -0.2954404 Eh           -8.0393 eV

 SCC (total)                   0 d,  0 h,  0 min,  0.012 sec
 SCC setup                      ...        0 min,  0.001 sec (  4.450%)
 Dispersion                     ...        0 min,  0.000 sec (  0.591%)
 classical contributions        ...        0 min,  0.000 sec (  0.174%)
 integral evaluation            ...        0 min,  0.003 sec ( 21.350%)
 iterations                     ...        0 min,  0.003 sec ( 23.789%)
 molecular gradient             ...        0 min,  0.006 sec ( 47.856%)
 printout                       ...        0 min,  0.000 sec (  1.578%)

         :::::::::::::::::::::::::::::::::::::::::::::::::::::
         ::                     SUMMARY                     ::
         :::::::::::::::::::::::::::::::::::::::::::::::::::::
         :: total energy             -30.349009819891 Eh    ::
         :: total w/o Gsasa/hb       -30.348678454753 Eh    ::
         :: gradient norm              0.000170573999 Eh/a0 ::
         :: HOMO-LUMO gap              3.802113544377 eV    ::
         ::.................................................::
         :: SCC energy               -30.761183492955 Eh    ::
         :: -> isotropic ES            0.037190000080 Eh    ::
         :: -> anisotropic ES          0.003677883759 Eh    ::
         :: -> anisotropic XC          0.008784654973 Eh    ::
         :: -> dispersion             -0.015023764958 Eh    ::
         :: -> Gsolv                  -0.005375027159 Eh    ::
         ::    -> Gelec               -0.005043662021 Eh    ::
         ::    -> Gsasa                0.000083714155 Eh    ::
         ::    -> Ghb                 -0.001495838990 Eh    ::
         ::    -> Gshift               0.001080759698 Eh    ::
         :: repulsion energy           0.412203003569 Eh    ::
         :: add. restraining           0.000000000000 Eh    ::
         :: total charge              -0.000000000000 e     ::
         :::::::::::::::::::::::::::::::::::::::::::::::::::::

           ------------------------------------------------- 
          |                Numerical Hessian                |
           ------------------------------------------------- 
step length          :   0.00500
SCC accuracy         :   0.30000
Hessian scale factor :   1.00000
frozen atoms in %    :   0.00000    0
RMS gradient         :   0.00017
estimated CPU  time      0.02 min
estimated wall time      0.02 min

writing file <hessian>.

 projected vibrational frequencies (cm⁻¹)
eigval :       -0.00    -0.00     0.00     0.00     0.00     0.00
eigval :       61.78   101.17   150.67   189.16   231.82   242.29
eigval :      259.33   372.21   379.51   388.95   444.27   500.09
eigval :      525.19   613.80   664.27   708.49   795.98   840.32
eigval :      850.03   888.05   904.23   993.15  1045.44  1049.84
eigval :     1115.72  1115.85  1117.37  1146.18  1159.50  1178.86
eigval :     1180.64  1266.05  1275.39  1329.24  1388.51  1390.04
eigval :     1416.80  1459.94  1459.99  1468.83  1472.87  1477.88
eigval :     1577.34  1612.88  2940.69  2940.72  2953.73  2954.12
eigval :     3033.07  3033.22  3101.54  3102.99  3114.08  3116.80
           -------------------------------------------------
          |                Property Printout                |
           -------------------------------------------------

    * Orbital Energies and Occupations

         #    Occupation            Energy/Eh            Energy/eV
      -------------------------------------------------------------
         1        2.0000           -0.7145460             -19.4438
       ...           ...                  ...                  ...
        15        2.0000           -0.5210976             -14.1798
        16        2.0000           -0.4981869             -13.5564
        17        2.0000           -0.4849019             -13.1949
        18        2.0000           -0.4807487             -13.0818
        19        2.0000           -0.4764133             -12.9639
        20        2.0000           -0.4737874             -12.8924
        21        2.0000           -0.4631123             -12.6019
        22        2.0000           -0.4539042             -12.3514
        23        2.0000           -0.4525344             -12.3141
        24        2.0000           -0.4250758             -11.5669
        25        2.0000           -0.4192346             -11.4080
        26        2.0000           -0.4071205             -11.0783
        27        2.0000           -0.3653029              -9.9404 (HOMO)
        28                         -0.2255778              -6.1383 (LUMO)
        29                         -0.2062429              -5.6122
        30                         -0.0871479              -2.3714
        31                          0.0192962               0.5251
        32                          0.0351422               0.9563
        33                          0.1149100               3.1269
        34                          0.1149171               3.1271
        35                          0.1292592               3.5173
        36                          0.1345947               3.6625
        37                          0.1669023               4.5416
        38                          0.1737285               4.7274
       ...                                ...                  ...
        50                          0.6633646              18.0511
      -------------------------------------------------------------
                  HL-Gap            0.1397251 Eh            3.8021 eV
             Fermi-level           -0.2954404 Eh           -8.0393 eV

     #   Z          covCN         q      C6AA      α(0)
     1   6 C        2.917    -0.070    29.746     8.944
     2   6 C        2.862     0.130    25.160     8.222
     3   6 C        2.922    -0.064    29.593     8.921
     4   6 C        2.917    -0.070    29.746     8.944
     5   6 C        2.862     0.130    25.160     8.222
     6   6 C        2.922    -0.064    29.593     8.921
     7   1 H        0.926     0.054     2.266     2.354
     8   1 H        0.926     0.053     2.286     2.365
     9   8 O        1.704    -0.309    19.142     5.907
    10   6 C        3.641     0.022    20.553     6.519
    11   1 H        0.924     0.052     2.291     2.367
    12   1 H        0.925     0.079     1.989     2.205
    13   1 H        0.924     0.052     2.291     2.367
    14   1 H        0.926     0.054     2.266     2.354
    15   8 O        1.704    -0.309    19.142     5.907
    16   6 C        3.641     0.022    20.553     6.519
    17   1 H        0.925     0.079     1.989     2.205
    18   1 H        0.924     0.052     2.291     2.367
    19   1 H        0.924     0.052     2.291     2.367
    20   1 H        0.926     0.053     2.286     2.365

 Mol. C6AA /au·bohr⁶  :       4147.497193
 Mol. C8AA /au·bohr⁸  :      96329.838975
 Mol. α(0) /au        :        100.339687


Wiberg/Mayer (AO) data.
largest (>0.10) Wiberg bond orders for each atom

 ---------------------------------------------------------------------------
     #   Z sym  total        # sym  WBO       # sym  WBO       # sym  WBO
 ---------------------------------------------------------------------------
     1   6 C    3.987 --     6 C    1.456     2 C    1.367     8 H    0.965
                             4 C    0.100
     2   6 C    3.934 --     1 C    1.367     3 C    1.363     9 O    1.045
     3   6 C    3.988 --     4 C    1.456     2 C    1.363    14 H    0.968
                             6 C    0.111
     4   6 C    3.987 --     3 C    1.456     5 C    1.367    20 H    0.965
                             1 C    0.100
     5   6 C    3.934 --     4 C    1.367     6 C    1.363    15 O    1.045
     6   6 C    3.988 --     1 C    1.456     5 C    1.363     7 H    0.968
                             3 C    0.111
     7   1 H    0.997 --     6 C    0.968
     8   1 H    0.997 --     1 C    0.965
     9   8 O    2.190 --     2 C    1.045    10 C    0.973
    10   6 C    3.933 --    12 H    0.978    13 H    0.977    11 H    0.977
                             9 O    0.973
    11   1 H    0.997 --    10 C    0.977
    12   1 H    0.993 --    10 C    0.978
    13   1 H    0.997 --    10 C    0.977
    14   1 H    0.997 --     3 C    0.968
    15   8 O    2.190 --     5 C    1.045    16 C    0.973
    16   6 C    3.933 --    17 H    0.978    19 H    0.977    18 H    0.977
                            15 O    0.973
    17   1 H    0.993 --    16 C    0.978
    18   1 H    0.997 --    16 C    0.977
    19   1 H    0.997 --    16 C    0.977
    20   1 H    0.997 --     4 C    0.965
 ---------------------------------------------------------------------------

Topologies differ in total number of bonds
Writing topology from bond orders to xtbtopo.mol

molecular dipole:
                 x           y           z       tot (Debye)
 q only:       -0.000      -0.000      -0.000
   full:        0.000      -0.000      -0.000       0.000
molecular quadrupole (traceless):
                xx          xy          yy          xz          yz          zz
 q only:        9.348       9.061      -3.705      -0.000      -0.000      -5.644
  q+dip:        7.942       9.674      -1.746      -0.000      -0.000      -6.195
   full:        8.118      10.348      -3.222      -0.000      -0.000      -4.897

           -------------------------------------------------
          |                Geometry Summary                 |
           -------------------------------------------------

      molecular mass/u    :      138.1641045
   center of mass at/Å    :        0.0000000       0.0000000       0.0000001
  moments of inertia/u·Å² :        0.1104980E+03   0.7311567E+03   0.8352030E+03
rotational constants/cm⁻¹ :        0.1525605E+00   0.2305611E-01   0.2018388E-01

 * 20 selected distances

     #   Z          #   Z                                           value/Å
     1   6 C        2   6 C                                       1.3910021
     2   6 C        3   6 C                                       1.3920304
     3   6 C        4   6 C                                       1.3815333
     4   6 C        5   6 C                                       1.3910021
     1   6 C        6   6 C                                       1.3815333
     5   6 C        6   6 C                                       1.3920304
     6   6 C        7   1 H                                       1.0783330
     1   6 C        8   1 H                                       1.0775756 (min)
     2   6 C        9   8 O                                       1.3692038
     9   8 O       10   6 C                                       1.4142624
    10   6 C       11   1 H                                       1.0932878
    10   6 C       12   1 H                                       1.0876845
    10   6 C       13   1 H                                       1.0932878
     3   6 C       14   1 H                                       1.0783330
     5   6 C       15   8 O                                       1.3692038
    15   8 O       16   6 C                                       1.4142624 (max)
    16   6 C       17   1 H                                       1.0876845
    16   6 C       18   1 H                                       1.0932878
    16   6 C       19   1 H                                       1.0932878
     4   6 C       20   1 H                                       1.0775756

 * 3 distinct bonds (by element types)

   Z      Z             #   av. dist./Å        max./Å        min./Å
   1 H    6 C          10     1.0860338     1.0932878     1.0775756
   6 C    6 C           6     1.3881886     1.3920304     1.3815333
   6 C    8 O           4     1.3917331     1.4142624     1.3692038

           -------------------------------------------------
          |               Frequency Printout                |
           -------------------------------------------------
 projected vibrational frequencies (cm⁻¹)
eigval :       -0.00    -0.00     0.00     0.00     0.00     0.00
eigval :       61.78   101.17   150.67   189.16   231.82   242.29
eigval :      259.33   372.21   379.51   388.95   444.27   500.09
eigval :      525.19   613.80   664.27   708.49   795.98   840.32
eigval :      850.03   888.05   904.23   993.15  1045.44  1049.84
eigval :     1115.72  1115.85  1117.37  1146.18  1159.50  1178.86
eigval :     1180.64  1266.05  1275.39  1329.24  1388.51  1390.04
eigval :     1416.80  1459.94  1459.99  1468.83  1472.87  1477.88
eigval :     1577.34  1612.88  2940.69  2940.72  2953.73  2954.12
eigval :     3033.07  3033.22  3101.54  3102.99  3114.08  3116.80
 reduced masses (amu)
   1: 12.10   2: 11.91   3: 11.83   4: 12.05   5: 11.60   6: 10.06   7:  9.00   8: 10.57
   9: 11.78  10:  9.72  11:  1.85  12:  3.12  13:  9.36  14: 11.58  15: 12.22  16:  9.15
  17: 10.99  18:  8.69  19: 11.26  20: 11.37  21: 11.48  22: 12.25  23:  5.24  24: 11.37
  25:  3.24  26:  2.58  27:  3.78  28:  9.85  29: 12.76  30: 10.88  31:  3.70  32:  3.69
  33:  4.39  34:  5.19  35:  3.71  36:  8.91  37:  2.52  38:  3.55  39: 11.75  40: 11.82
  41:  2.57  42:  2.59  43: 10.01  44:  1.54  45:  1.54  46:  5.94  47:  1.57  48:  5.06
  49: 11.72  50: 11.58  51:  1.96  52:  1.96  53:  1.44  54:  1.44  55:  1.70  56:  1.70
  57:  1.79  58:  1.79  59:  1.87  60:  1.88
 IR intensities (km·mol⁻¹)
   1:  0.01   2:  0.00   3:  0.00   4:  0.00   5:  0.00   6:  0.00   7:  6.53   8:  0.00
   9: 13.23  10:  5.68  11:  0.00  12:  3.00  13:  0.00  14:  0.00  15:  0.00  16:  0.04
  17:  6.00  18:  0.10  19:  0.00  20:  0.00  21:  0.00  22:170.33  23: 71.28  24:  0.00
  25:  0.00  26:  0.00  27:  0.58  28: 22.40  29:  0.00  30:162.96  31:  5.77  32:  0.01
  33: 49.08  34:  0.00  35: 12.29  36:882.83  37:  0.00  38:  0.00  39:  0.00  40: 52.98
  41:  0.63  42:  0.00  43: 28.29  44: 13.60  45:  0.09  46:401.21  47:  0.00  48:142.94
  49:  0.00  50:  0.00  51: 98.05  52:  0.35  53: 99.13  54:  0.00  55: 37.19  56:  0.00
  57:  0.00  58: 62.70  59:113.10  60:  0.00
 Raman intensities (amu)
   1:  0.00   2:  0.00   3:  0.00   4:  0.00   5:  0.00   6:  0.00   7:  0.00   8:  0.00
   9:  0.00  10:  0.00  11:  0.00  12:  0.00  13:  0.00  14:  0.00  15:  0.00  16:  0.00
  17:  0.00  18:  0.00  19:  0.00  20:  0.00  21:  0.00  22:  0.00  23:  0.00  24:  0.00
  25:  0.00  26:  0.00  27:  0.00  28:  0.00  29:  0.00  30:  0.00  31:  0.00  32:  0.00
  33:  0.00  34:  0.00  35:  0.00  36:  0.00  37:  0.00  38:  0.00  39:  0.00  40:  0.00
  41:  0.00  42:  0.00  43:  0.00  44:  0.00  45:  0.00  46:  0.00  47:  0.00  48:  0.00
  49:  0.00  50:  0.00  51:  0.00  52:  0.00  53:  0.00  54:  0.00  55:  0.00  56:  0.00
  57:  0.00  58:  0.00  59:  0.00  60:  0.00
 output can be read by thermo (or use thermo option).
 writing <g98.out> molden fake output.
 recommended (thermochemical) frequency scaling factor: 1.0
           -------------------------------------------------
          |             Thermodynamic Functions             |
           -------------------------------------------------

Molecule has the following symmetry elements: (i) (C2) (sigma) 
It seems to be the C2h point group
c2h symmetry found (for desy threshold:  0.10E+00) used in thermo

          ...................................................
          :                      SETUP                      :
          :.................................................:
          :  # frequencies                          54      :
          :  # imaginary freq.                       0      :
          :  linear?                             false      :
          :  only rotor calc.                    false      :
          :  symmetry                              c2h      :
          :  rotational number                       2      :
          :  scaling factor                  1.0000000      :
          :  rotor cutoff                   50.0000000 cm⁻¹ :
          :  imag. cutoff                  -20.0000000 cm⁻¹ :
          :.................................................:

    mode    ω/cm⁻¹     T·S(HO)/kcal·mol⁻¹    T·S(FR)/kcal·mol⁻¹   T·S(vib)
   ------------------------------------------------------------------------
       1     61.78    -1.31172 ( 69.98%)    -0.99374 ( 30.02%)    -1.21625
       2    101.17    -1.02315 ( 94.37%)    -0.84768 (  5.63%)    -1.01327
       3    150.67    -0.79421 ( 98.80%)    -0.72972 (  1.20%)    -0.79344
       4    189.16    -0.66666 ( 99.51%)    -0.66233 (  0.49%)    -0.66664
       5    231.82    -0.55598 ( 99.78%)    -0.60209 (  0.22%)    -0.55608
       6    242.29    -0.53249 ( 99.82%)    -0.58901 (  0.18%)    -0.53259
       7    259.33    -0.49681 ( 99.86%)    -0.56888 (  0.14%)    -0.49691
   ------------------------------------------------------------------------

   temp. (K)  partition function   enthalpy   heat capacity  entropy
                                   cal/mol     cal/K/mol   cal/K/mol   J/K/mol
 298.15  VIB   294.                 4381.812     30.949     25.635
         ROT  0.314E+06              888.752      2.981     28.132
         INT  0.921E+08             5270.565     33.930     53.767
         TR   0.157E+28             1481.254      4.968     40.663
         TOT                        6751.8187    38.8981    94.4301   395.0955

       T/K    H(0)-H(T)+PV         H(T)/Eh          T*S/Eh         G(T)/Eh
   ------------------------------------------------------------------------
    298.15    0.107597E-01    0.170461E+00    0.448668E-01    0.125594E+00
   ------------------------------------------------------------------------

         :::::::::::::::::::::::::::::::::::::::::::::::::::::
         ::                  THERMODYNAMIC                  ::
         :::::::::::::::::::::::::::::::::::::::::::::::::::::
         :: total free energy         -30.223415398619 Eh   ::
         ::.................................................::
         :: total energy              -30.349009820696 Eh   ::
         :: zero point energy           0.159701493710 Eh   ::
         :: G(RRHO) w/o ZPVE           -0.034107071633 Eh   ::
         :: G(RRHO) contrib.            0.125594422077 Eh   ::
         :::::::::::::::::::::::::::::::::::::::::::::::::::::

optimized geometry written to: xtbopt.xyz


           -------------------------------------------------
          | TOTAL ENERGY              -30.349009820696 Eh   |
          | TOTAL ENTHALPY            -30.178548619080 Eh   |
          | TOTAL FREE ENERGY         -30.223415398619 Eh   |
          | GRADIENT NORM               0.000170535361 Eh/α |
          | HOMO-LUMO GAP               3.802113525010 eV   |
           -------------------------------------------------

------------------------------------------------------------------------
 * finished run on 2021/11/15 at 09:36:24.093     
------------------------------------------------------------------------
 total:
 * wall-time:     0 d,  0 h,  0 min,  1.205 sec
 *  cpu-time:     0 d,  0 h,  0 min,  1.172 sec
 * ratio c/w:     0.972 speedup
 SCF:
 * wall-time:     0 d,  0 h,  0 min,  0.013 sec
 *  cpu-time:     0 d,  0 h,  0 min,  0.016 sec
 * ratio c/w:     1.225 speedup
 ANC optimizer:
 * wall-time:     0 d,  0 h,  0 min,  0.069 sec
 *  cpu-time:     0 d,  0 h,  0 min,  0.078 sec
 * ratio c/w:     1.125 speedup
 analytical hessian:
 * wall-time:     0 d,  0 h,  0 min,  1.084 sec
 *  cpu-time:     0 d,  0 h,  0 min,  1.062 sec
 * ratio c/w:     0.980 speedup

