 Entering Gaussian System
 *********************************************
 Gaussian 98:
 frequency output generated by the xtb code
 *********************************************
                         Standard orientation:
 --------------------------------------------------------------------
  Center     Atomic     Atomic              Coordinates (Angstroms)
  Number     Number      Type              X           Y           Z
 --------------------------------------------------------------------
    1          6             0       -0.925821   -1.036380    0.000005
    2          6             0       -1.368453    0.282318    0.000005
    3          6             0       -0.428526    1.309102   -0.000001
    4          6             0        0.925821    1.036380   -0.000005
    5          6             0        1.368453   -0.282318   -0.000005
    6          6             0        0.428526   -1.309102    0.000001
    7          1             0        0.781826   -2.327916    0.000001
    8          1             0       -1.621731   -1.859106    0.000009
    9          8             0       -2.681285    0.671153    0.000009
   10          6             0       -3.679954   -0.330245    0.000014
   11          1             0       -3.613507   -0.955339    0.894509
   12          1             0       -4.624674    0.208791    0.000016
   13          1             0       -3.613513   -0.955342   -0.894480
   14          1             0       -0.781826    2.327916   -0.000001
   15          8             0        2.681285   -0.671153   -0.000009
   16          6             0        3.679954    0.330245   -0.000013
   17          1             0        4.624674   -0.208791   -0.000016
   18          1             0        3.613507    0.955339   -0.894508
   19          1             0        3.613513    0.955342    0.894480
   20          1             0        1.621731    1.859106   -0.000009
 --------------------------------------------------------------------
     1 basis functions        1 primitive gaussians
     1 alpha electrons        1 beta electrons
 
 Harmonic frequencies (cm**-1), IR intensities (km*mol⁻¹),
 Raman scattering activities (A**4/amu), Raman depolarization ratios,
 reduced masses (AMU), force constants (mDyne/A) and normal coordinates:
                      1                      2                      3
                        a                      a                      a 
 Frequencies --    61.7787               101.1692               150.6653
 Red. masses --     8.9962                10.5660                11.7782
 Frc consts  --     0.0000                 0.0000                 0.0000
 IR Inten    --     6.5322                 0.0001                13.2322
 Raman Activ --     0.0000                 0.0000                 0.0000
 Depolar     --     0.0000                 0.0000                 0.0000
 Atom AN      X      Y      Z        X      Y      Z        X      Y      Z
   1   6     0.00   0.00   0.20    -0.00  -0.00  -0.28    -0.00  -0.00  -0.23
   2   6     0.00   0.00   0.16    -0.00  -0.00  -0.18    -0.00  -0.00  -0.02
   3   6     0.00   0.00   0.21     0.00   0.00   0.11    -0.00  -0.00  -0.21
   4   6     0.00   0.00   0.20     0.00   0.00   0.28    -0.00  -0.00  -0.23
   5   6     0.00   0.00   0.16     0.00   0.00   0.18    -0.00  -0.00  -0.02
   6   6     0.00   0.00   0.21    -0.00  -0.00  -0.11    -0.00  -0.00  -0.21
   7   1     0.00   0.00   0.06    -0.00  -0.00  -0.06    -0.00  -0.00  -0.07
   8   1     0.00   0.00   0.06    -0.00  -0.00  -0.15    -0.00  -0.00  -0.09
   9   8     0.00  -0.00   0.06    -0.00  -0.00  -0.39     0.00   0.00   0.53
  10   6    -0.00  -0.00  -0.50     0.00   0.00   0.32    -0.00   0.00  -0.07
  11   1    -0.10  -0.05  -0.17     0.11   0.06   0.13     0.02  -0.16  -0.14
  12   1    -0.00  -0.00  -0.22     0.00   0.00   0.17     0.00   0.00   0.10
  13   1     0.10   0.05  -0.17    -0.11  -0.06   0.13    -0.02   0.16  -0.14
  14   1     0.00   0.00   0.06     0.00   0.00   0.06    -0.00  -0.00  -0.07
  15   8     0.00   0.00   0.06     0.00   0.00   0.39     0.00   0.00   0.53
  16   6    -0.00  -0.00  -0.50    -0.00  -0.00  -0.32    -0.00   0.00  -0.07
  17   1    -0.00  -0.00  -0.22    -0.00  -0.00  -0.17     0.00   0.00   0.10
  18   1    -0.10  -0.05  -0.17    -0.11  -0.06  -0.13     0.02  -0.16  -0.13
  19   1     0.10   0.05  -0.17     0.11   0.06  -0.13    -0.02   0.16  -0.13
  20   1     0.00   0.00   0.06     0.00   0.00   0.15    -0.00  -0.00  -0.09
                      4                      5                      6
                        a                      a                      a 
 Frequencies --   189.1642               231.8228               242.2941
 Red. masses --     9.7209                 1.8502                 3.1245
 Frc consts  --     0.0000                 0.0000                 0.0000
 IR Inten    --     5.6805                 0.0000                 2.9970
 Raman Activ --     0.0000                 0.0000                 0.0000
 Depolar     --     0.0000                 0.0000                 0.0000
 Atom AN      X      Y      Z        X      Y      Z        X      Y      Z
   1   6     0.02  -0.20   0.00     0.00   0.00   0.02     0.00  -0.00   0.07
   2   6     0.04  -0.20   0.00    -0.00  -0.00  -0.10     0.00  -0.00   0.02
   3   6     0.05  -0.21   0.00    -0.00  -0.00  -0.16     0.00   0.00   0.16
   4   6     0.02  -0.20   0.00    -0.00   0.00  -0.02     0.00  -0.00   0.07
   5   6     0.04  -0.20   0.00     0.00   0.00   0.10     0.00  -0.00   0.02
   6   6     0.05  -0.21   0.00     0.00   0.00   0.16     0.00   0.00   0.17
   7   1     0.01  -0.06   0.00     0.00   0.00   0.07     0.00   0.00   0.06
   8   1    -0.00  -0.05   0.00     0.00  -0.00  -0.01    -0.00  -0.00  -0.02
   9   8     0.15   0.08  -0.00    -0.00   0.00   0.04    -0.00  -0.00  -0.22
  10   6    -0.21   0.43   0.00    -0.00  -0.00  -0.03    -0.00   0.00  -0.02
  11   1    -0.13   0.11  -0.00     0.22  -0.25  -0.20     0.24  -0.21  -0.18
  12   1    -0.01   0.22  -0.00     0.00   0.00   0.38     0.00   0.00   0.39
  13   1    -0.13   0.11   0.00    -0.22   0.25  -0.20    -0.24   0.21  -0.18
  14   1     0.01  -0.06   0.00    -0.00  -0.00  -0.07     0.00   0.00   0.06
  15   8     0.15   0.08  -0.00    -0.00  -0.00  -0.04    -0.00  -0.00  -0.22
  16   6    -0.21   0.43   0.00     0.00  -0.00   0.03    -0.00   0.00  -0.02
  17   1    -0.01   0.22  -0.00    -0.00  -0.00  -0.39     0.00   0.00   0.38
  18   1    -0.13   0.11  -0.00    -0.22   0.25   0.20     0.24  -0.21  -0.17
  19   1    -0.13   0.11   0.00     0.22  -0.25   0.20    -0.24   0.21  -0.17
  20   1    -0.00  -0.05   0.00     0.00   0.00   0.01    -0.00  -0.00  -0.02
                      7                      8                      9
                        a                      a                      a 
 Frequencies --   259.3259               372.2128               379.5095
 Red. masses --     9.3566                11.5766                12.2173
 Frc consts  --     0.0000                 0.0000                 0.0000
 IR Inten    --     0.0000                 0.0000                 0.0000
 Raman Activ --     0.0000                 0.0000                 0.0000
 Depolar     --     0.0000                 0.0000                 0.0000
 Atom AN      X      Y      Z        X      Y      Z        X      Y      Z
   1   6    -0.10   0.14   0.00    -0.00   0.00  -0.32     0.06  -0.29   0.00
   2   6     0.08   0.20  -0.00    -0.00  -0.00  -0.38     0.21  -0.25  -0.00
   3   6     0.16   0.11  -0.00    -0.00  -0.00  -0.31    -0.07  -0.01  -0.00
   4   6     0.10  -0.14  -0.00     0.00  -0.00   0.31    -0.06   0.29   0.00
   5   6    -0.08  -0.20   0.00     0.00   0.00   0.38    -0.21   0.25   0.00
   6   6    -0.16  -0.11   0.00     0.00   0.00   0.31     0.07   0.01  -0.00
   7   1    -0.09  -0.05   0.00     0.00   0.00   0.12     0.13   0.04  -0.00
   8   1    -0.06   0.07   0.00    -0.00  -0.00  -0.13     0.02  -0.09   0.00
   9   8     0.09   0.14  -0.00     0.00   0.00   0.32     0.40  -0.03  -0.00
  10   6     0.43  -0.22  -0.00    -0.00  -0.00   0.04     0.25   0.15  -0.00
  11   1     0.19  -0.06   0.00    -0.08   0.02   0.04     0.05   0.04  -0.00
  12   1     0.06  -0.17   0.00    -0.00  -0.00  -0.10     0.09   0.08  -0.00
  13   1     0.19  -0.06  -0.00     0.08  -0.02   0.04     0.05   0.04   0.00
  14   1     0.09   0.05  -0.00    -0.00  -0.00  -0.12    -0.13  -0.04  -0.00
  15   8    -0.09  -0.14   0.00    -0.00  -0.00  -0.32    -0.40   0.03   0.00
  16   6    -0.43   0.22   0.00     0.00   0.00  -0.04    -0.25  -0.15   0.00
  17   1    -0.06   0.17  -0.00     0.00   0.00   0.10    -0.09  -0.08   0.00
  18   1    -0.19   0.06  -0.00     0.08  -0.02  -0.03    -0.05  -0.04   0.00
  19   1    -0.19   0.06   0.00    -0.08   0.02  -0.03    -0.05  -0.04  -0.00
  20   1     0.06  -0.07  -0.00     0.00   0.00   0.13    -0.02   0.09   0.00
                     10                     11                     12
                        a                      a                      a 
 Frequencies --   388.9525               444.2711               500.0886
 Red. masses --     9.1466                10.9854                 8.6949
 Frc consts  --     0.0000                 0.0000                 0.0000
 IR Inten    --     0.0422                 6.0011                 0.0996
 Raman Activ --     0.0000                 0.0000                 0.0000
 Depolar     --     0.0000                 0.0000                 0.0000
 Atom AN      X      Y      Z        X      Y      Z        X      Y      Z
   1   6     0.00   0.00   0.43     0.20   0.16  -0.00    -0.00  -0.00  -0.12
   2   6    -0.00   0.00   0.02     0.13   0.11  -0.00     0.00   0.00   0.55
   3   6    -0.00  -0.00  -0.43     0.15   0.16  -0.00    -0.00  -0.00  -0.10
   4   6     0.00   0.00   0.44     0.20   0.16  -0.00    -0.00  -0.00  -0.12
   5   6     0.00  -0.00   0.02     0.13   0.11  -0.00     0.00   0.00   0.55
   6   6    -0.00  -0.00  -0.42     0.15   0.16  -0.00    -0.00   0.00  -0.10
   7   1    -0.00  -0.00  -0.25     0.06   0.05  -0.00    -0.00  -0.00  -0.27
   8   1     0.00   0.00   0.24     0.04   0.06  -0.00    -0.00  -0.00  -0.29
   9   8    -0.00   0.00  -0.01    -0.03  -0.36   0.00    -0.00  -0.00  -0.14
  10   6    -0.00  -0.00  -0.01    -0.36  -0.07   0.00    -0.00  -0.00  -0.01
  11   1     0.03  -0.03  -0.03    -0.18  -0.03   0.00     0.01   0.02   0.01
  12   1    -0.00  -0.00   0.05    -0.03   0.10  -0.00    -0.00  -0.00  -0.00
  13   1    -0.03   0.03  -0.03    -0.18  -0.03  -0.00    -0.01  -0.02   0.01
  14   1    -0.00  -0.00  -0.25     0.06   0.05  -0.00    -0.00  -0.00  -0.27
  15   8     0.00  -0.00  -0.02    -0.03  -0.36   0.00    -0.00  -0.00  -0.14
  16   6     0.00   0.00  -0.01    -0.36  -0.07   0.00    -0.00  -0.00  -0.01
  17   1     0.00   0.00   0.05    -0.03   0.10  -0.00     0.00   0.00  -0.00
  18   1     0.03  -0.03  -0.03    -0.18  -0.03   0.00     0.01   0.02   0.01
  19   1    -0.03   0.03  -0.03    -0.18  -0.03  -0.00    -0.01  -0.02   0.01
  20   1     0.00   0.00   0.24     0.04   0.06  -0.00    -0.00  -0.00  -0.29
                     13                     14                     15
                        a                      a                      a 
 Frequencies --   525.1905               613.7986               664.2727
 Red. masses --    11.2593                11.3738                11.4787
 Frc consts  --     0.0000                 0.0000                 0.0000
 IR Inten    --     0.0000                 0.0000                 0.0000
 Raman Activ --     0.0000                 0.0000                 0.0000
 Depolar     --     0.0000                 0.0000                 0.0000
 Atom AN      X      Y      Z        X      Y      Z        X      Y      Z
   1   6     0.05   0.11  -0.00     0.44   0.16  -0.00    -0.00  -0.00  -0.32
   2   6     0.26   0.17  -0.00    -0.06   0.06   0.00     0.00   0.00   0.53
   3   6     0.07   0.36  -0.00    -0.37   0.24   0.00    -0.00  -0.00  -0.30
   4   6    -0.05  -0.11   0.00    -0.44  -0.16   0.00     0.00   0.00   0.32
   5   6    -0.26  -0.17   0.00     0.06  -0.06   0.00    -0.00  -0.00  -0.53
   6   6    -0.07  -0.36   0.00     0.37  -0.24  -0.00     0.00   0.00   0.30
   7   1    -0.06  -0.11   0.00     0.08  -0.07  -0.00     0.00   0.00   0.12
   8   1    -0.10   0.13  -0.00     0.12   0.04  -0.00    -0.00  -0.00  -0.10
   9   8     0.19  -0.34  -0.00    -0.05   0.15  -0.00    -0.00  -0.00  -0.07
  10   6    -0.12  -0.04   0.00     0.09   0.09  -0.00    -0.00  -0.00  -0.01
  11   1    -0.12  -0.02   0.00     0.06   0.02  -0.00     0.01   0.01   0.00
  12   1     0.04   0.12  -0.00    -0.00  -0.03   0.00     0.00   0.00   0.00
  13   1    -0.12  -0.02  -0.00     0.06   0.02   0.00    -0.01  -0.01   0.00
  14   1     0.06   0.11  -0.00    -0.08   0.07   0.00    -0.00  -0.00  -0.12
  15   8    -0.19   0.34  -0.00     0.05  -0.15   0.00     0.00   0.00   0.07
  16   6     0.12   0.04  -0.00    -0.09  -0.09   0.00     0.00  -0.00   0.01
  17   1    -0.04  -0.12   0.00     0.00   0.03  -0.00    -0.00  -0.00  -0.00
  18   1     0.12   0.02  -0.00    -0.06  -0.02   0.00    -0.01  -0.01  -0.00
  19   1     0.12   0.02   0.00    -0.06  -0.02  -0.00     0.01   0.01  -0.00
  20   1     0.10  -0.13  -0.00    -0.12  -0.04   0.00     0.00   0.00   0.10
                     16                     17                     18
                        a                      a                      a 
 Frequencies --   708.4924               795.9803               840.3241
 Red. masses --    12.2464                 5.2411                11.3680
 Frc consts  --     0.0000                 0.0000                 0.0000
 IR Inten    --   170.3304                71.2811                 0.0000
 Raman Activ --     0.0000                 0.0000                 0.0000
 Depolar     --     0.0000                 0.0000                 0.0000
 Atom AN      X      Y      Z        X      Y      Z        X      Y      Z
   1   6    -0.28   0.02   0.00     0.00   0.00   0.25     0.12   0.38  -0.00
   2   6     0.04  -0.01   0.00    -0.00  -0.00  -0.30    -0.15   0.03   0.00
   3   6    -0.26   0.20   0.00     0.00   0.00   0.19     0.00  -0.38   0.00
   4   6    -0.28   0.02   0.00     0.00   0.00   0.25    -0.12  -0.38   0.00
   5   6     0.04  -0.01  -0.00    -0.00  -0.00  -0.29     0.15  -0.03  -0.00
   6   6    -0.26   0.20   0.00     0.00   0.00   0.20    -0.00   0.38  -0.00
   7   1    -0.12   0.04   0.00    -0.00  -0.00  -0.35    -0.11   0.07   0.00
   8   1    -0.11   0.03   0.00    -0.00  -0.00  -0.43     0.09   0.06   0.00
   9   8     0.36  -0.30  -0.00     0.00  -0.00   0.07     0.20  -0.22  -0.00
  10   6     0.15   0.06  -0.00     0.00   0.00   0.01     0.15   0.07  -0.00
  11   1    -0.05   0.01   0.00    -0.01   0.00   0.01    -0.04   0.01  -0.00
  12   1     0.11   0.15  -0.00    -0.00   0.00  -0.02     0.10   0.13  -0.00
  13   1    -0.05   0.01  -0.00     0.01  -0.00   0.01    -0.04   0.01   0.00
  14   1    -0.12   0.04   0.00    -0.00  -0.00  -0.35     0.11  -0.07  -0.00
  15   8     0.36  -0.30  -0.00     0.00   0.00   0.07    -0.20   0.22   0.00
  16   6     0.15   0.06  -0.00     0.00   0.00   0.01    -0.15  -0.07   0.00
  17   1     0.11   0.15  -0.00    -0.00  -0.00  -0.02    -0.10  -0.13   0.00
  18   1    -0.05   0.01   0.00    -0.01   0.00   0.01     0.04  -0.01   0.00
  19   1    -0.05   0.01  -0.00     0.01  -0.00   0.01     0.04  -0.01  -0.00
  20   1    -0.11   0.03   0.00    -0.00  -0.00  -0.43    -0.09  -0.06   0.00
                     19                     20                     21
                        a                      a                      a 
 Frequencies --   850.0309               888.0460               904.2339
 Red. masses --     3.2432                 2.5836                 3.7795
 Frc consts  --     0.0000                 0.0000                 0.0000
 IR Inten    --     0.0000                 0.0000                 0.5821
 Raman Activ --     0.0000                 0.0000                 0.0000
 Depolar     --     0.0000                 0.0000                 0.0000
 Atom AN      X      Y      Z        X      Y      Z        X      Y      Z
   1   6     0.00   0.00   0.26     0.00   0.00   0.12    -0.00  -0.00  -0.23
   2   6     0.00   0.00   0.02     0.00   0.00   0.01    -0.00   0.00  -0.03
   3   6    -0.00  -0.00  -0.18     0.00   0.00   0.24     0.00   0.00   0.27
   4   6    -0.00  -0.00  -0.26    -0.00  -0.00  -0.12    -0.00  -0.00  -0.23
   5   6     0.00  -0.00  -0.02    -0.00   0.00  -0.01    -0.00   0.00  -0.03
   6   6     0.00   0.00   0.18    -0.00  -0.00  -0.24     0.00   0.00   0.27
   7   1    -0.00  -0.00  -0.31     0.00   0.00   0.57    -0.00  -0.00  -0.47
   8   1    -0.00  -0.00  -0.55    -0.00  -0.00  -0.34     0.00   0.00   0.39
   9   8     0.00  -0.00   0.01     0.00  -0.00   0.02    -0.00  -0.00   0.01
  10   6     0.00   0.00  -0.00     0.00   0.00   0.00     0.00   0.00   0.00
  11   1     0.00   0.01   0.01    -0.00   0.00   0.00    -0.01  -0.01  -0.01
  12   1     0.00   0.00  -0.02    -0.00  -0.00  -0.01     0.00   0.00   0.01
  13   1    -0.00  -0.01   0.01     0.00  -0.00   0.00     0.01   0.01  -0.01
  14   1     0.00   0.00   0.31    -0.00  -0.00  -0.56    -0.00  -0.00  -0.47
  15   8    -0.00   0.00  -0.01     0.00  -0.00  -0.02     0.00  -0.00   0.01
  16   6    -0.00  -0.00   0.00     0.00   0.00  -0.00     0.00   0.00   0.00
  17   1     0.00  -0.00   0.02     0.00   0.00   0.01     0.00   0.00   0.01
  18   1    -0.00  -0.01  -0.01     0.00  -0.00  -0.00    -0.01  -0.01  -0.01
  19   1     0.00   0.01  -0.01    -0.00   0.00  -0.00     0.01   0.01  -0.01
  20   1     0.00   0.00   0.55     0.00   0.00   0.33     0.00   0.00   0.39
                     22                     23                     24
                        a                      a                      a 
 Frequencies --   993.1464              1045.4406              1049.8419
 Red. masses --     9.8456                12.7589                10.8849
 Frc consts  --     0.0000                 0.0000                 0.0000
 IR Inten    --    22.4023                 0.0000               162.9597
 Raman Activ --     0.0000                 0.0000                 0.0000
 Depolar     --     0.0000                 0.0000                 0.0000
 Atom AN      X      Y      Z        X      Y      Z        X      Y      Z
   1   6    -0.15  -0.36   0.00    -0.12  -0.12   0.00    -0.03   0.14  -0.00
   2   6     0.19  -0.03  -0.00    -0.16   0.03   0.00     0.11  -0.03  -0.00
   3   6     0.02   0.37  -0.00    -0.03   0.14  -0.00    -0.05  -0.12   0.00
   4   6    -0.15  -0.36   0.00     0.12   0.12  -0.00    -0.03   0.14  -0.00
   5   6     0.19  -0.03  -0.00     0.16  -0.03  -0.00     0.11  -0.03  -0.00
   6   6     0.02   0.37  -0.00     0.03  -0.14   0.00    -0.05  -0.12   0.00
   7   1     0.15   0.15  -0.00    -0.03  -0.05   0.00    -0.23  -0.11   0.00
   8   1     0.07  -0.19  -0.00    -0.04  -0.03   0.00    -0.12   0.14   0.00
   9   8     0.06   0.15  -0.00    -0.35  -0.29   0.00     0.34   0.26  -0.00
  10   6    -0.18  -0.09   0.00     0.35   0.26  -0.00    -0.29  -0.25   0.00
  11   1     0.03  -0.01  -0.00    -0.01   0.03  -0.00    -0.00  -0.03   0.01
  12   1    -0.09  -0.10   0.00     0.12   0.13  -0.00    -0.09  -0.10   0.00
  13   1     0.03  -0.01   0.00    -0.01   0.03   0.00    -0.00  -0.03  -0.01
  14   1     0.15   0.15  -0.00     0.03   0.05  -0.00    -0.23  -0.11   0.00
  15   8     0.06   0.15  -0.00     0.35   0.29  -0.00     0.34   0.26  -0.00
  16   6    -0.18  -0.09   0.00    -0.35  -0.26   0.00    -0.29  -0.25   0.00
  17   1    -0.09  -0.10   0.00    -0.12  -0.13   0.00    -0.09  -0.10   0.00
  18   1     0.03  -0.01  -0.00     0.01  -0.03   0.00    -0.00  -0.03   0.01
  19   1     0.03  -0.01   0.00     0.01  -0.03  -0.00    -0.00  -0.03  -0.01
  20   1     0.07  -0.19   0.00     0.04   0.03  -0.00    -0.12   0.14   0.00
                     25                     26                     27
                        a                      a                      a 
 Frequencies --  1115.7204              1115.8514              1117.3693
 Red. masses --     3.6969                 3.6931                 4.3936
 Frc consts  --     0.0000                 0.0000                 0.0000
 IR Inten    --     5.7680                 0.0062                49.0769
 Raman Activ --     0.0000                 0.0000                 0.0000
 Depolar     --     0.0000                 0.0000                 0.0000
 Atom AN      X      Y      Z        X      Y      Z        X      Y      Z
   1   6     0.00   0.00  -0.00    -0.00  -0.00   0.00     0.12   0.09  -0.00
   2   6     0.00  -0.00   0.00    -0.00   0.00  -0.00     0.05  -0.17   0.00
   3   6    -0.00   0.00   0.00     0.00  -0.00  -0.00    -0.05   0.15   0.00
   4   6     0.00   0.00  -0.00    -0.00  -0.00  -0.00     0.12   0.09  -0.00
   5   6     0.00  -0.00   0.00    -0.00   0.00   0.00     0.05  -0.17   0.00
   6   6    -0.00   0.00   0.00     0.00  -0.00   0.00    -0.05   0.15  -0.00
   7   1    -0.00  -0.00  -0.01     0.00   0.00  -0.00    -0.40  -0.09   0.00
   8   1     0.00  -0.00   0.02    -0.00   0.00  -0.01     0.23  -0.14  -0.00
   9   8     0.00  -0.00   0.15    -0.00   0.00  -0.16    -0.05  -0.15  -0.00
  10   6    -0.00   0.00  -0.29     0.00   0.00   0.31    -0.06   0.20   0.00
  11   1     0.27   0.29   0.12    -0.29  -0.31  -0.12     0.16   0.03  -0.02
  12   1    -0.00  -0.00   0.15    -0.00   0.00  -0.16    -0.15  -0.19  -0.00
  13   1    -0.27  -0.29   0.12     0.29   0.31  -0.12     0.16   0.03   0.02
  14   1    -0.00  -0.00  -0.01     0.00   0.00   0.00    -0.40  -0.09   0.00
  15   8     0.00  -0.00   0.16     0.00   0.00   0.15    -0.05  -0.15   0.00
  16   6    -0.00   0.00  -0.31    -0.00  -0.00  -0.29    -0.06   0.20   0.00
  17   1    -0.00  -0.00   0.16     0.00   0.00   0.15    -0.15  -0.19   0.00
  18   1     0.29   0.31   0.12     0.27   0.29   0.12     0.16   0.03  -0.02
  19   1    -0.29  -0.31   0.12    -0.27  -0.29   0.12     0.16   0.03   0.02
  20   1     0.00  -0.00   0.02    -0.00   0.00   0.01     0.23  -0.14  -0.00
                     28                     29                     30
                        a                      a                      a 
 Frequencies --  1146.1757              1159.5025              1178.8554
 Red. masses --     5.1937                 3.7108                 8.9144
 Frc consts  --     0.0000                 0.0000                 0.0000
 IR Inten    --     0.0000                12.2936               882.8296
 Raman Activ --     0.0000                 0.0000                 0.0000
 Depolar     --     0.0000                 0.0000                 0.0000
 Atom AN      X      Y      Z        X      Y      Z        X      Y      Z
   1   6     0.02   0.03  -0.00    -0.09   0.03   0.00    -0.02  -0.13   0.00
   2   6     0.04  -0.05  -0.00     0.05   0.02  -0.00     0.44  -0.02  -0.00
   3   6     0.06  -0.01  -0.00     0.04  -0.07  -0.00    -0.00   0.04   0.00
   4   6    -0.02  -0.03   0.00    -0.09   0.03   0.00    -0.02  -0.13   0.00
   5   6    -0.04   0.05   0.00     0.05   0.02  -0.00     0.44  -0.02  -0.00
   6   6    -0.06   0.01   0.00     0.04  -0.07  -0.00    -0.00   0.04  -0.00
   7   1    -0.16  -0.05   0.00     0.25   0.06  -0.00    -0.23  -0.07   0.00
   8   1     0.03  -0.01  -0.00    -0.28   0.22   0.00    -0.26   0.19   0.00
   9   8     0.04  -0.24   0.00     0.05  -0.19   0.00    -0.31   0.03   0.00
  10   6    -0.13   0.29   0.00    -0.10   0.22   0.00     0.12   0.03  -0.00
  11   1     0.25   0.04  -0.03     0.19   0.04  -0.02    -0.08  -0.00   0.01
  12   1    -0.26  -0.33   0.00    -0.21  -0.28   0.00     0.03   0.02  -0.00
  13   1     0.25   0.04   0.03     0.19   0.04   0.02    -0.08  -0.00  -0.01
  14   1     0.16   0.05  -0.00     0.25   0.06  -0.00    -0.23  -0.07   0.00
  15   8    -0.04   0.24  -0.00     0.05  -0.19   0.00    -0.31   0.03   0.00
  16   6     0.13  -0.29   0.00    -0.10   0.22  -0.00     0.12   0.03  -0.00
  17   1     0.26   0.33  -0.00    -0.21  -0.28   0.00     0.03   0.02  -0.00
  18   1    -0.25  -0.04   0.03     0.19   0.04  -0.02    -0.08  -0.00   0.01
  19   1    -0.25  -0.04  -0.03     0.19   0.04   0.02    -0.08  -0.00  -0.01
  20   1    -0.03   0.01   0.00    -0.28   0.22   0.00    -0.26   0.19   0.00
                     31                     32                     33
                        a                      a                      a 
 Frequencies --  1180.6375              1266.0450              1275.3900
 Red. masses --     2.5191                 3.5523                11.7536
 Frc consts  --     0.0000                 0.0000                 0.0000
 IR Inten    --     0.0000                 0.0000                 0.0000
 Raman Activ --     0.0000                 0.0000                 0.0000
 Depolar     --     0.0000                 0.0000                 0.0000
 Atom AN      X      Y      Z        X      Y      Z        X      Y      Z
   1   6     0.04  -0.14   0.00    -0.11   0.09   0.00    -0.22  -0.04   0.00
   2   6    -0.12  -0.00   0.00    -0.01   0.25  -0.00    -0.48   0.05   0.00
   3   6     0.02   0.09  -0.00     0.11   0.07  -0.00    -0.18   0.16   0.00
   4   6    -0.04   0.14  -0.00     0.11  -0.09  -0.00     0.22   0.04  -0.00
   5   6     0.12   0.00  -0.00     0.01  -0.25   0.00     0.48  -0.05  -0.00
   6   6    -0.02  -0.09   0.00    -0.11  -0.07   0.00     0.18  -0.16  -0.00
   7   1    -0.47  -0.19   0.00     0.36   0.11  -0.00     0.08  -0.04  -0.00
   8   1     0.29  -0.28  -0.00     0.37  -0.32  -0.00    -0.16   0.06   0.00
   9   8     0.10   0.06  -0.00     0.04  -0.08  -0.00     0.31  -0.04  -0.00
  10   6    -0.02  -0.08   0.00    -0.05   0.03   0.00    -0.09  -0.04   0.00
  11   1    -0.03  -0.02   0.00     0.05  -0.01  -0.02     0.07   0.01   0.01
  12   1     0.06   0.09  -0.00    -0.00   0.02  -0.00    -0.01   0.00   0.00
  13   1    -0.03  -0.02  -0.00     0.05  -0.01   0.02     0.07   0.01  -0.01
  14   1     0.47   0.19  -0.00    -0.36  -0.11   0.00    -0.08   0.04   0.00
  15   8    -0.10  -0.06   0.00    -0.04   0.08  -0.00    -0.31   0.04   0.00
  16   6     0.02   0.08  -0.00     0.05  -0.03  -0.00     0.09   0.04  -0.00
  17   1    -0.06  -0.09   0.00     0.00  -0.02   0.00     0.01  -0.00  -0.00
  18   1     0.03   0.02  -0.00    -0.05   0.01   0.02    -0.07  -0.01  -0.01
  19   1     0.03   0.02   0.00    -0.05   0.01  -0.02    -0.07  -0.01   0.01
  20   1    -0.29   0.28   0.00    -0.37   0.32   0.00     0.16  -0.06  -0.00
                     34                     35                     36
                        a                      a                      a 
 Frequencies --  1329.2411              1388.5077              1390.0390
 Red. masses --    11.8242                 2.5676                 2.5909
 Frc consts  --     0.0000                 0.0000                 0.0000
 IR Inten    --    52.9772                 0.6324                 0.0000
 Raman Activ --     0.0000                 0.0000                 0.0000
 Depolar     --     0.0000                 0.0000                 0.0000
 Atom AN      X      Y      Z        X      Y      Z        X      Y      Z
   1   6    -0.25   0.25   0.00    -0.03  -0.04   0.00    -0.04   0.01   0.00
   2   6    -0.06  -0.45   0.00     0.02   0.04  -0.00    -0.06   0.02   0.00
   3   6     0.35   0.15  -0.00     0.07   0.00  -0.00    -0.02   0.02   0.00
   4   6    -0.25   0.25   0.00    -0.03  -0.04   0.00     0.04  -0.01  -0.00
   5   6    -0.06  -0.45   0.00     0.02   0.04  -0.00     0.06  -0.02  -0.00
   6   6     0.35   0.15  -0.00     0.07   0.00  -0.00     0.02  -0.02  -0.00
   7   1     0.03   0.02  -0.00    -0.04  -0.02   0.00     0.01  -0.01  -0.00
   8   1    -0.05   0.05   0.00    -0.04   0.02   0.00     0.03  -0.03  -0.00
   9   8    -0.06   0.05   0.00    -0.07  -0.06   0.00     0.10   0.04  -0.00
  10   6     0.04  -0.03  -0.00    -0.18  -0.13   0.00     0.18   0.14  -0.00
  11   1    -0.03  -0.01   0.00     0.32   0.16   0.09    -0.32  -0.17  -0.10
  12   1     0.03   0.03  -0.00     0.18   0.34  -0.00    -0.18  -0.34   0.00
  13   1    -0.03  -0.01  -0.00     0.32   0.16  -0.09    -0.32  -0.17   0.10
  14   1     0.03   0.02  -0.00    -0.04  -0.02   0.00    -0.01   0.01   0.00
  15   8    -0.06   0.05   0.00    -0.07  -0.06   0.00    -0.10  -0.04   0.00
  16   6     0.04  -0.03  -0.00    -0.18  -0.13   0.00    -0.18  -0.14   0.00
  17   1     0.03   0.03  -0.00     0.18   0.34  -0.00     0.18   0.34  -0.00
  18   1    -0.03  -0.01   0.00     0.32   0.16   0.09     0.32   0.17   0.10
  19   1    -0.03  -0.01  -0.00     0.32   0.16  -0.09     0.32   0.17  -0.10
  20   1    -0.05   0.05   0.00    -0.04   0.02   0.00    -0.03   0.03   0.00
                     37                     38                     39
                        a                      a                      a 
 Frequencies --  1416.7958              1459.9397              1459.9902
 Red. masses --    10.0098                 1.5449                 1.5438
 Frc consts  --     0.0000                 0.0000                 0.0000
 IR Inten    --    28.2872                13.5999                 0.0878
 Raman Activ --     0.0000                 0.0000                 0.0000
 Depolar     --     0.0000                 0.0000                 0.0000
 Atom AN      X      Y      Z        X      Y      Z        X      Y      Z
   1   6    -0.39   0.02   0.00    -0.00   0.00   0.00    -0.00   0.00   0.00
   2   6     0.10   0.33  -0.00     0.00  -0.00  -0.00    -0.00   0.00  -0.00
   3   6     0.31  -0.19  -0.00    -0.00  -0.00   0.00    -0.00  -0.00  -0.00
   4   6    -0.39   0.02   0.00    -0.00   0.00   0.00    -0.00   0.00  -0.00
   5   6     0.10   0.33  -0.00     0.00  -0.00  -0.00     0.00  -0.00   0.00
   6   6     0.31  -0.19  -0.00    -0.00  -0.00   0.00    -0.00  -0.00   0.00
   7   1    -0.11  -0.12   0.00     0.00   0.00   0.00     0.00  -0.00  -0.00
   8   1     0.11  -0.18  -0.00     0.00  -0.00  -0.02    -0.00  -0.00  -0.01
   9   8    -0.00  -0.07   0.00    -0.00   0.00  -0.02    -0.00  -0.00  -0.02
  10   6    -0.01   0.07  -0.00    -0.00  -0.00  -0.17    -0.00  -0.00  -0.14
  11   1     0.00  -0.08  -0.06    -0.34   0.07   0.07    -0.29   0.06   0.06
  12   1    -0.02  -0.02   0.00     0.00   0.00   0.54     0.00   0.00   0.46
  13   1     0.00  -0.08   0.06     0.34  -0.07   0.07     0.29  -0.06   0.06
  14   1    -0.11  -0.12   0.00     0.00   0.00   0.00    -0.00  -0.00  -0.00
  15   8    -0.00  -0.07   0.00    -0.00   0.00  -0.02     0.00   0.00   0.02
  16   6    -0.01   0.07  -0.00    -0.00  -0.00  -0.14     0.00   0.00   0.17
  17   1    -0.02  -0.02   0.00     0.00   0.00   0.46    -0.00  -0.00  -0.54
  18   1     0.00  -0.08  -0.06    -0.29   0.06   0.06     0.34  -0.07  -0.07
  19   1     0.00  -0.08   0.06     0.29  -0.06   0.06    -0.34   0.07  -0.07
  20   1     0.11  -0.18  -0.00     0.00  -0.00  -0.01     0.00   0.00   0.02
                     40                     41                     42
                        a                      a                      a 
 Frequencies --  1468.8288              1472.8662              1477.8782
 Red. masses --     5.9373                 1.5689                 5.0575
 Frc consts  --     0.0000                 0.0000                 0.0000
 IR Inten    --   401.2093                 0.0000               142.9350
 Raman Activ --     0.0000                 0.0000                 0.0000
 Depolar     --     0.0000                 0.0000                 0.0000
 Atom AN      X      Y      Z        X      Y      Z        X      Y      Z
   1   6    -0.04   0.20  -0.00     0.01  -0.01  -0.00     0.12  -0.21  -0.00
   2   6     0.27  -0.13  -0.00     0.01  -0.02  -0.00    -0.25   0.04   0.00
   3   6    -0.25  -0.11   0.00    -0.01  -0.01   0.00     0.16   0.15  -0.00
   4   6    -0.04   0.20  -0.00    -0.01   0.01   0.00     0.12  -0.21  -0.00
   5   6     0.27  -0.13  -0.00    -0.01   0.02   0.00    -0.25   0.04   0.00
   6   6    -0.25  -0.11   0.00     0.01   0.01  -0.00     0.16   0.15  -0.00
   7   1     0.19   0.06  -0.00    -0.01  -0.00   0.00    -0.16  -0.02   0.00
   8   1     0.13  -0.05  -0.00    -0.04   0.04   0.00    -0.18   0.12   0.00
   9   8    -0.07   0.05   0.00    -0.02   0.04   0.00     0.05   0.02  -0.00
  10   6    -0.08   0.06   0.00    -0.09   0.12   0.00    -0.05   0.09  -0.00
  11   1     0.11  -0.23  -0.17     0.13  -0.36  -0.26     0.08  -0.27  -0.19
  12   1     0.08   0.16  -0.00     0.10   0.19  -0.00     0.06   0.11  -0.00
  13   1     0.11  -0.23   0.17     0.13  -0.36   0.26     0.08  -0.27   0.19
  14   1     0.19   0.06  -0.00     0.01   0.00  -0.00    -0.16  -0.02   0.00
  15   8    -0.07   0.05   0.00     0.02  -0.04  -0.00     0.05   0.02  -0.00
  16   6    -0.08   0.06   0.00     0.09  -0.12  -0.00    -0.05   0.09  -0.00
  17   1     0.08   0.16  -0.00    -0.10  -0.19   0.00     0.06   0.11  -0.00
  18   1     0.11  -0.23  -0.17    -0.13   0.36   0.26     0.08  -0.27  -0.19
  19   1     0.11  -0.23   0.17    -0.13   0.36  -0.26     0.08  -0.27   0.19
  20   1     0.13  -0.05  -0.00     0.04  -0.04  -0.00    -0.18   0.12   0.00
                     43                     44                     45
                        a                      a                      a 
 Frequencies --  1577.3409              1612.8763              2940.6884
 Red. masses --    11.7173                11.5761                 1.9554
 Frc consts  --     0.0000                 0.0000                 0.0000
 IR Inten    --     0.0000                 0.0000                98.0507
 Raman Activ --     0.0000                 0.0000                 0.0000
 Depolar     --     0.0000                 0.0000                 0.0000
 Atom AN      X      Y      Z        X      Y      Z        X      Y      Z
   1   6    -0.09   0.33  -0.00    -0.39   0.19   0.00    -0.00  -0.00  -0.00
   2   6    -0.07  -0.52   0.00     0.27  -0.02  -0.00     0.00  -0.00  -0.00
   3   6     0.18   0.25  -0.00    -0.47  -0.05   0.00     0.00   0.00   0.00
   4   6     0.09  -0.33   0.00     0.39  -0.19  -0.00     0.00   0.00  -0.00
   5   6     0.07   0.52  -0.00    -0.27   0.02   0.00     0.00  -0.00  -0.00
   6   6    -0.18  -0.25   0.00     0.47   0.05  -0.00    -0.00   0.00   0.00
   7   1     0.06  -0.03  -0.00    -0.09  -0.06   0.00     0.00  -0.00   0.00
   8   1     0.09  -0.02  -0.00     0.05  -0.08  -0.00     0.00   0.00  -0.00
   9   8    -0.03   0.05   0.00    -0.03   0.01   0.00     0.00   0.00   0.00
  10   6     0.02  -0.02  -0.00    -0.01  -0.00   0.00     0.00   0.00   0.22
  11   1    -0.01  -0.00   0.00     0.01   0.00   0.00    -0.04   0.30  -0.40
  12   1     0.02   0.02  -0.00     0.00   0.00   0.00     0.00   0.00   0.04
  13   1    -0.01  -0.00  -0.00     0.01   0.00  -0.00     0.04  -0.30  -0.40
  14   1    -0.06   0.03   0.00     0.09   0.06  -0.00     0.00  -0.00   0.00
  15   8     0.03  -0.05  -0.00     0.03  -0.01  -0.00     0.00   0.00   0.00
  16   6    -0.02   0.02   0.00     0.01   0.00  -0.00     0.00   0.00   0.19
  17   1    -0.02  -0.02   0.00    -0.00  -0.00  -0.00     0.00   0.00   0.03
  18   1     0.01   0.00  -0.00    -0.01  -0.00  -0.00    -0.04   0.27  -0.36
  19   1     0.01   0.00   0.00    -0.01  -0.00   0.00     0.04  -0.27  -0.36
  20   1    -0.09   0.02   0.00    -0.05   0.08   0.00    -0.00  -0.00  -0.00
                     46                     47                     48
                        a                      a                      a 
 Frequencies --  2940.7218              2953.7292              2954.1170
 Red. masses --     1.9557                 1.4392                 1.4408
 Frc consts  --     0.0000                 0.0000                 0.0000
 IR Inten    --     0.3470                99.1254                 0.0000
 Raman Activ --     0.0000                 0.0000                 0.0000
 Depolar     --     0.0000                 0.0000                 0.0000
 Atom AN      X      Y      Z        X      Y      Z        X      Y      Z
   1   6     0.00   0.00   0.00    -0.00  -0.00   0.00     0.00   0.00  -0.00
   2   6     0.00   0.00   0.00    -0.00   0.00   0.00     0.00  -0.00  -0.00
   3   6    -0.00   0.00   0.00     0.00  -0.00  -0.00    -0.00  -0.00   0.00
   4   6     0.00   0.00  -0.00    -0.00  -0.00   0.00    -0.00  -0.00   0.00
   5   6     0.00  -0.00  -0.00    -0.00   0.00   0.00    -0.00   0.00   0.00
   6   6     0.00   0.00  -0.00     0.00  -0.00  -0.00     0.00   0.00  -0.00
   7   1     0.00  -0.00   0.00    -0.00   0.00   0.00    -0.00   0.00   0.00
   8   1    -0.00  -0.00   0.00     0.01   0.00  -0.00    -0.01  -0.00   0.00
   9   8    -0.00  -0.00  -0.00     0.01   0.01  -0.00    -0.01  -0.01   0.00
  10   6    -0.00  -0.00  -0.19    -0.03   0.14  -0.00     0.03  -0.14   0.00
  11   1     0.04  -0.27   0.36     0.03  -0.26   0.41    -0.03   0.26  -0.41
  12   1    -0.00  -0.00  -0.03     0.01   0.01  -0.00    -0.01  -0.01   0.00
  13   1    -0.04   0.27   0.36     0.03  -0.26  -0.41    -0.03   0.26   0.41
  14   1     0.00  -0.00  -0.00    -0.00   0.00   0.00     0.00  -0.00  -0.00
  15   8     0.00   0.00   0.00     0.01   0.01  -0.00     0.01   0.01  -0.00
  16   6     0.00   0.00   0.22    -0.03   0.14  -0.00    -0.03   0.14  -0.00
  17   1     0.00   0.00   0.04     0.01   0.01  -0.00     0.01   0.01  -0.00
  18   1    -0.04   0.30  -0.40     0.03  -0.26   0.41     0.03  -0.26   0.41
  19   1     0.04  -0.30  -0.40     0.03  -0.26  -0.41     0.03  -0.26  -0.41
  20   1    -0.00  -0.00  -0.00     0.01   0.00  -0.00     0.01   0.00  -0.00
                     49                     50                     51
                        a                      a                      a 
 Frequencies --  3033.0681              3033.2192              3101.5391
 Red. masses --     1.7012                 1.6995                 1.7884
 Frc consts  --     0.0000                 0.0000                 0.0000
 IR Inten    --    37.1936                 0.0000                 0.0000
 Raman Activ --     0.0000                 0.0000                 0.0000
 Depolar     --     0.0000                 0.0000                 0.0000
 Atom AN      X      Y      Z        X      Y      Z        X      Y      Z
   1   6     0.00   0.00  -0.00    -0.00  -0.00   0.00     0.06   0.07  -0.00
   2   6    -0.00  -0.00   0.00     0.00   0.00  -0.00    -0.00   0.01  -0.00
   3   6    -0.00   0.00   0.00     0.00  -0.00  -0.00    -0.05   0.15  -0.00
   4   6     0.00   0.00  -0.00     0.00   0.00  -0.00    -0.06  -0.07   0.00
   5   6    -0.00  -0.00   0.00    -0.00  -0.00   0.00     0.00  -0.01   0.00
   6   6    -0.00   0.00   0.00    -0.00   0.00   0.00     0.05  -0.15   0.00
   7   1     0.00  -0.00  -0.00     0.00  -0.00  -0.00    -0.19   0.55  -0.00
   8   1    -0.00  -0.00   0.00     0.00   0.00  -0.00    -0.23  -0.27   0.00
   9   8     0.01   0.00  -0.00    -0.01  -0.00   0.00     0.00  -0.00  -0.00
  10   6     0.15  -0.09  -0.00    -0.15   0.09   0.00    -0.00   0.00   0.00
  11   1     0.02  -0.02   0.01    -0.02   0.02  -0.01     0.00  -0.00   0.00
  12   1    -0.59   0.34   0.00     0.59  -0.34  -0.00     0.00  -0.00  -0.00
  13   1     0.02  -0.02  -0.01    -0.02   0.02   0.01     0.00  -0.00  -0.00
  14   1     0.00  -0.00  -0.00    -0.00   0.00   0.00     0.19  -0.55   0.00
  15   8     0.01   0.00  -0.00     0.01   0.00  -0.00    -0.00   0.00   0.00
  16   6     0.15  -0.09  -0.00     0.15  -0.09  -0.00     0.00  -0.00  -0.00
  17   1    -0.59   0.34   0.00    -0.59   0.34   0.00    -0.00   0.00   0.00
  18   1     0.02  -0.02   0.01     0.02  -0.02   0.01    -0.00   0.00  -0.00
  19   1     0.02  -0.02  -0.01     0.02  -0.02  -0.01    -0.00   0.00   0.00
  20   1    -0.00  -0.00   0.00    -0.00  -0.00   0.00     0.23   0.27  -0.00
                     52                     53                     54
                        a                      a                      a 
 Frequencies --  3102.9887              3114.0762              3116.8009
 Red. masses --     1.7869                 1.8668                 1.8764
 Frc consts  --     0.0000                 0.0000                 0.0000
 IR Inten    --    62.7034               113.0951                 0.0000
 Raman Activ --     0.0000                 0.0000                 0.0000
 Depolar     --     0.0000                 0.0000                 0.0000
 Atom AN      X      Y      Z        X      Y      Z        X      Y      Z
   1   6    -0.05  -0.06   0.00     0.11   0.13  -0.00    -0.11  -0.13   0.00
   2   6    -0.01   0.00   0.00     0.00  -0.00  -0.00    -0.01   0.00   0.00
   3   6    -0.06   0.16  -0.00    -0.03   0.08  -0.00    -0.03   0.10  -0.00
   4   6    -0.05  -0.06   0.00     0.11   0.13  -0.00     0.11   0.13  -0.00
   5   6    -0.01   0.00   0.00     0.00  -0.00  -0.00     0.01  -0.00  -0.00
   6   6    -0.06   0.16  -0.00    -0.03   0.08  -0.00     0.03  -0.10   0.00
   7   1     0.20  -0.58   0.00     0.10  -0.28   0.00    -0.11   0.34  -0.00
   8   1     0.19   0.23  -0.00    -0.40  -0.46   0.00     0.37   0.44  -0.00
   9   8     0.00   0.00  -0.00     0.00   0.00  -0.00     0.00  -0.00  -0.00
  10   6     0.00  -0.00   0.00    -0.00   0.00  -0.00     0.00  -0.00   0.00
  11   1    -0.00   0.00  -0.00     0.00  -0.00   0.00    -0.00   0.00  -0.00
  12   1    -0.00   0.00   0.00     0.00  -0.00  -0.00    -0.00   0.00   0.00
  13   1    -0.00   0.00   0.00     0.00  -0.00  -0.00    -0.00   0.00   0.00
  14   1     0.20  -0.58   0.00     0.10  -0.28   0.00     0.11  -0.34   0.00
  15   8     0.00   0.00  -0.00     0.00   0.00  -0.00    -0.00   0.00   0.00
  16   6     0.00  -0.00  -0.00    -0.00   0.00  -0.00    -0.00   0.00  -0.00
  17   1    -0.00   0.00   0.00     0.00  -0.00  -0.00     0.00  -0.00  -0.00
  18   1    -0.00   0.00  -0.00     0.00  -0.00   0.00     0.00  -0.00   0.00
  19   1    -0.00   0.00   0.00     0.00  -0.00  -0.00     0.00  -0.00  -0.00
  20   1     0.19   0.23  -0.00    -0.40  -0.46   0.00    -0.37  -0.44   0.00
