20
 energy: -30.349009819891 gnorm: 0.000170573999 xtb: 6.4.1 (afa7bdf)
C        -0.92582133574274   -1.03637970734200    0.00000527537365
C        -1.36845299296547    0.28231816690073    0.00000460894888
C        -0.42852586342014    1.30910233895984   -0.00000083094709
C         0.92582143332716    1.03637971071048   -0.00000538342234
C         1.36845309016700   -0.28231816356254   -0.00000460942905
C         0.42852596093197   -1.30910233563090    0.00000076821271
H         0.78182606617856   -2.32791591710596    0.00000140709066
H        -1.62173119574178   -1.85910601638144    0.00000931401828
O        -2.68128460679014    0.67115254649911    0.00000891046597
C        -3.67995379454796   -0.33024540334710    0.00001381775648
H        -3.61350656332204   -0.95533911990880    0.89450856202321
H        -4.62467435106311    0.20879145966737    0.00001637478159
H        -3.61351283630375   -0.95534160073983   -0.89447966922076
H        -0.78182596803600    2.32791592075648   -0.00000126670210
O         2.68128470389881   -0.67115254582657   -0.00000852304928
C         3.67995389683087    0.33024540032613   -0.00001338245976
H         4.62467445134630   -0.20879146722533   -0.00001562497488
H         3.61350687079131    0.95533894571161   -0.89450826856579
H         3.61351274073258    0.95534176807960    0.89447996809656
H         1.62173129373554    1.85910601945737   -0.00000944800042
