17
../calculations/M062X_631+Gdp_SDD_SMD_SAS_Alpha0485/La2007H+/step2_1_La2007H+.log	Energy: -134395.6479231
N          0.17952       -0.12661        0.16409
C          1.43217        0.68769        0.14904
C         -1.08016        0.67669        0.17050
C          2.65182       -0.20925        0.15303
C         -2.29213       -0.23069        0.17984
H          1.39089        1.30941       -0.74569
H          1.39949        1.33040        1.02907
H         -1.04315        1.31044        1.05690
H         -1.05387        1.30784       -0.71806
H          0.17579       -0.74594       -0.65124
H          2.67791       -0.83483        1.04926
H          2.66843       -0.85500       -0.72896
H          3.55090        0.41024        0.14103
H         -2.31306       -0.86944       -0.70711
H         -2.30339       -0.86368        1.07109
H         -3.19638        0.38131        0.18299
H          0.18856       -0.73752        0.98565
