11
../calculations/M062X_631+Gdp_SDD_SMD_SAS_Alpha0485/La35H-/step2_1_La35H-.log	Energy: -417927.6699959
S          0.99733        1.90222        0.44052
C          2.54948       -0.32756       -0.04267
O          2.72987       -1.50835       -0.45410
O          3.46691        0.48694        0.24626
H          0.57862       -0.10171       -0.82250
C          0.42094       -0.70840        1.23945
C          1.08431        0.09769        0.12495
H         -0.34179        1.95690        0.50433
H          0.93166       -0.54208        2.19237
H          0.46198       -1.77458        0.99976
H         -0.62763       -0.42147        1.35113
