11
../calculations/M062X_631+Gdp_SDD_SMD_SAS_Alpha0485/La2002H+/step2_1_La2002H+.log	Energy:  -85082.0477250
N          0.71078       -1.99166        2.35578
C         -0.56082       -1.20940        2.42531
C         -1.75087       -2.14032        2.35934
H         -0.53354       -0.65031        3.35901
H         -0.54334       -0.51011        1.59125
H         -1.75747       -2.70459        1.42308
H         -1.74423       -2.84421        3.19558
H         -2.66977       -1.55311        2.41248
H          0.76326       -2.51394        1.47935
H          0.76460       -2.66453        3.12333
H          1.52758       -1.38242        2.41005
