9
../calculations/M062X_631+Gdp_SDD_SMD_SAS_Alpha0485/La3025H/step2_1_La3025H.log	Energy: -201575.1451102
O          0.09226        2.06577        0.14407
O         -0.04000       -0.17466        0.20563
C          2.12987        0.81288        0.12721
C          0.61831        0.84462        0.16567
H          2.43073        0.27847       -0.77717
H          2.47971        0.23651        0.98667
C          2.76876        2.12417        0.13936
H         -0.87892        2.00062        0.16560
N          3.29510        3.15490        0.14940
