11
../calculations/M062X_631+Gdp_SDD_SMD_SAS_Alpha0485/La3003H/step2_1_La3003H.log	Energy: -168366.2500427
O          0.59298        1.13458        0.25823
O         -0.60144       -0.70593       -0.16888
C          1.80550       -0.86861       -0.19681
C          0.48692       -0.16986       -0.02921
H          2.05213       -0.78011       -1.26157
H          1.63006       -1.92736        0.00200
C          2.93938       -0.31416        0.65763
H         -0.29966        1.51707        0.30764
H          2.68610       -0.35461        1.72016
H          3.16500        0.72193        0.39651
H          3.84182       -0.90850        0.49932
