15
../calculations/M062X_631+Gdp_SDD_SMD_SAS_Alpha0485/La32H/step2_1_La32H.log	Energy: -349229.9970503
S          0.40319       -0.39713        0.12595
C          0.34691       -2.24228       -0.04661
H         -0.92390       -0.19687        0.10181
C         -0.35806       -2.61286       -1.34838
H         -0.36871       -3.70343       -1.45799
H         -1.39400       -2.25972       -1.34834
H          0.15674       -2.18470       -2.21312
C         -0.38587       -2.84664        1.14788
H         -0.40229       -3.93827        1.04948
H          0.11277       -2.59263        2.08761
H         -1.42033       -2.49255        1.19452
C          1.80199       -2.70483       -0.07268
H          1.82710       -3.79534       -0.16783
H          2.34200       -2.27540       -0.92188
H          2.32355       -2.43086        0.84947
