18
../calculations/M062X_631+Gdp_SDD_SMD_SAS_Alpha0485/La15H-/step2_1_La15H-.log	Energy: -548423.7574009
S          1.90040        2.22435        0.14434
N          3.98583       -0.59745       -1.26502
C          5.34739       -1.08767       -1.30157
O          4.71205       -1.92147       -3.46002
O          6.81090       -2.26152       -2.74367
C          3.49125        0.06672       -0.22193
C          2.02307        0.44574       -0.30338
C          1.20252       -0.43713        0.63190
O          4.17367        0.33549        0.78612
C          5.63817       -1.81474       -2.61290
H          3.40910       -0.79953       -2.07323
H          6.05638       -0.26082       -1.19761
H          5.52933       -1.78011       -0.47342
H          1.67456        0.33570       -1.33108
H          0.14858       -0.15382        0.58528
H          1.29370       -1.48485        0.32910
H          1.54964       -0.33444        1.66315
H          0.58927        2.32160       -0.11885
