8
../calculations/M062X_631+Gdp_SDD_SMD_SAS_Alpha0485/La3012H/step2_1_La3012H.log	Energy: -432088.6898613
O         -0.25740        1.78842       -0.00370
O         -0.11303       -0.44956        0.00340
C          1.92087        0.76477        0.00191
C          0.41669        0.64587        0.00026
H          2.30019        0.26027       -0.88594
H          2.29830        0.26096        0.89093
Cl         2.54933        2.43546        0.00199
H         -1.21056        1.59234       -0.00371
