14
../calculations/M062X_631+Gdp_SDD_SMD_SAS_Alpha0485/La16H/step2_1_La16H.log	Energy: -621605.8655651
S          0.66172        0.32229       -1.59339
H         -2.95252        2.22566        0.14688
C         -1.64277        0.24834       -0.09429
H         -2.16540       -0.15005        0.77687
H         -2.18268       -0.04370       -0.99763
C         -0.22727       -0.31335       -0.11324
H          0.31717        0.02274        0.77408
C         -0.28596       -1.83254       -0.11256
H         -0.79670       -2.18668       -1.01557
H         -0.85279       -2.15916        0.76776
S         -1.62589        2.07666        0.03295
O          1.04058       -2.34622       -0.05415
H          0.99433       -3.30884       -0.11809
H          1.77105       -0.40868       -1.41456
