12
../calculations/M062X_631+Gdp_SDD_SMD_SAS_Alpha0485/La3007H/step2_1_La3007H.log	Energy: -192252.1867831
O          0.01759        0.90392       -0.47286
O         -1.67156       -0.55859       -0.59574
C          0.58579       -1.41005       -0.50617
C         -0.47454       -0.34024       -0.51772
H          0.87368       -1.57087       -1.55153
H          0.10328       -2.32401       -0.15122
C          1.79232       -1.07256        0.32143
C          3.03324       -1.02760       -0.15963
H          3.87879       -0.79791        0.48115
H          3.24004       -1.22197       -1.20929
H          1.61075       -0.87230        1.37592
H         -0.72020        1.53549       -0.52064
