13
../calculations/M062X_631+Gdp_SDD_SMD_SAS_Alpha0485/La6H/step2_1_La6H.log	Energy: -395526.5472115
S          1.21367        2.53748        0.09232
C          2.40308        0.07963       -0.00016
C          1.18288        0.76294       -0.03594
C         -0.01100        0.04736       -0.16815
C          0.02276       -1.34265       -0.26826
C          1.23689       -2.02837       -0.23443
C          2.42494       -1.31000       -0.09865
H          3.33334        0.62996        0.10187
H         -0.96305        0.56781       -0.19160
H         -0.90913       -1.88910       -0.37168
H          1.25763       -3.11009       -0.31233
H          3.37727       -1.82927       -0.07039
H         -0.10800        2.73039       -0.01282
