18
../calculations/M062X_631+Gdp_SDD_SMD_SAS_Alpha0485/La33H/step2_1_La33H.log	Energy: -373887.1604752
S          0.28143       -0.37977        0.03745
C          0.26597       -2.23554       -0.03422
H         -1.04876       -0.21643        0.11593
C         -0.51294       -2.68023       -1.27024
H         -0.56783       -3.77321       -1.30685
H         -1.53725       -2.29610       -1.24026
H         -0.03457       -2.32582       -2.18830
C         -0.39342       -2.77805        1.23180
H         -0.45035       -3.87057        1.18727
H          0.17243       -2.49633        2.12499
H         -1.41380       -2.39513        1.33077
C          1.75018       -2.63183       -0.11953
H          2.18802       -2.15446       -1.00483
H          2.27002       -2.22274        0.75542
C          1.99882       -4.13689       -0.18943
H          3.07349       -4.33124       -0.24660
H          1.61640       -4.65295        0.69574
H          1.53466       -4.58355       -1.07336
