17
../calculations/M062X_631+Gdp_SDD_SMD_SAS_Alpha0485/La9H/step2_1_La9H.log	Energy: -467366.9261050
S          0.57183        1.96330        0.12984
C          1.71432       -0.52065       -0.01123
C          0.51267        0.18369        0.04136
C         -0.69395       -0.52630        0.03253
C         -0.68947       -1.91275       -0.03058
C          0.51895       -2.61510       -0.08012
C          1.72609       -1.91582       -0.07106
H          2.66048        0.01154       -0.00709
H         -1.64205       -0.00003        0.07351
H         -1.62260       -2.46626       -0.03969
O          0.41879       -3.98054       -0.13611
H         -0.74910        2.17237        0.05094
H          2.67636       -2.43360       -0.11021
C          1.62992       -4.72741       -0.17678
H          1.33413       -5.77456       -0.21866
H          2.22781       -4.55104        0.72262
H          2.21439       -4.47591       -1.06652
