9
../calculations/M062X_631+Gdp_SDD_SMD_SAS_Alpha0485/La11H/step2_1_La11H.log	Energy: -486696.5363117
S          0.11367        2.60685       -0.34700
C          0.11647        0.79952       -0.19034
H         -1.16325        2.72607       -0.73506
H         -0.75164        0.46132        0.37450
H          1.02355        0.52231        0.34740
C          0.12642        0.08298       -1.51704
F          0.13011       -1.25507       -1.34367
F         -0.95413        0.36950       -2.27158
F          1.20741        0.37681       -2.26587
