8
../calculations/M062X_631+Gdp_SDD_SMD_SAS_Alpha0485/La3002H/step2_1_La3002H.log	Energy: -143708.7288565
O         -0.30721        1.29382       -0.00076
O         -0.99144       -0.83694        0.00095
C          1.37733       -0.36682        0.00015
C         -0.07780       -0.02930        0.00048
H          1.84754        0.06456       -0.88625
H          1.85086        0.07392        0.88010
H          1.50608       -1.44683        0.00535
H         -1.26757        1.44470       -0.00132
