17
../calculations/M062X_631+Gdp_SDD_SMD_SAS_Alpha0485/La2005H+/step2_1_La2005H+.log	Energy: -134404.4701792
N          0.10524       -0.02726        1.47126
C         -0.00443       -0.00941       -0.03622
C          0.68689        1.25385       -0.52810
C          0.68422       -1.26189       -0.55836
C         -1.48798       -0.00305       -0.37358
H          1.74733        1.25114       -0.25858
H          0.60854        1.29934       -1.61692
H          0.21582        2.14908       -0.11174
H          0.21044       -2.16618       -0.16524
H          1.74441       -1.26848       -0.28764
H          0.60744       -1.27995       -1.64822
H         -1.98120        0.88253        0.03810
H         -1.60669        0.01239       -1.45953
H         -1.98370       -0.89841        0.01295
H          1.08192       -0.03254        1.77413
H         -0.35057       -0.85652        1.85838
H         -0.34725        0.79486        1.87702
