23
../calculations/M062X_631+Gdp_SDD_SMD_SAS_Alpha0485/La28H/step2_1_La28H.log	Energy: -560901.2097512
S         -1.64082        2.24910       -0.01172
C          3.19307        1.19409       -0.96994
H          2.73816        1.59518       -1.87573
H          3.74984        1.98118       -0.45799
C          2.18547        0.62157       -0.01374
O          2.51357        0.24595        1.12532
N          0.91362        0.52136       -0.44912
H          0.70130        0.80268       -1.39818
C         -0.14508       -0.03608        0.36729
H          0.00309        0.29696        1.39876
C         -1.51412        0.42567       -0.12551
H         -1.66932        0.11091       -1.16000
H         -2.28181       -0.02007        0.50504
H          3.89719        0.40281       -1.23927
C         -0.14672       -1.56700        0.41734
O         -0.88709       -2.14712        1.23382
N          0.63321       -2.22257       -0.43798
H          1.23658       -1.69124       -1.05022
C          0.68747       -3.67471       -0.45349
H          1.36653       -3.98706       -1.24340
H          1.04840       -4.05823        0.50391
H         -0.30359       -4.09116       -0.64553
H         -2.95321        2.31482       -0.27160
