10
../calculations/M062X_631+Gdp_SDD_SMD_SAS_Alpha0485/La20H/step2_1_La20H.log	Energy: -347098.2654339
S          0.11826        2.43334        0.13667
H          1.92208        0.41589       -0.92876
H          2.11088        0.43499        0.84099
C          0.06942        0.60480        0.16246
H         -0.35972        0.26832        1.10783
H         -0.54900        0.24919       -0.66346
O          1.40383       -1.34684        0.04019
H          2.29889       -1.70164       -0.04011
C          1.48371        0.07771        0.01662
H         -1.20191        2.62510        0.25520
