12
../calculations/M062X_631+Gdp_SDD_SMD_SAS_Alpha0485/La3016H/step2_1_La3016H.log	Energy: -215557.4957556
O          0.49440        1.10214       -0.23149
O         -0.58652       -0.72967        0.48207
C          1.72824       -0.92733       -0.21805
C          0.42254       -0.20063        0.05634
H          1.97220       -0.75501       -1.27273
O          1.58226       -2.30981        0.04071
C          2.84551       -0.39496        0.66516
H         -0.36460        1.51735       -0.04242
H          2.58693       -0.52080        1.71983
H          3.02193        0.66285        0.46443
H          3.76148       -0.95040        0.45369
H          0.91504       -2.67363       -0.55764
