9
../calculations/M062X_631+Gdp_SDD_SMD_SAS_Alpha0485/La3017H/step2_1_La3017H.log	Energy: -190895.4606830
O         -0.24250        1.82848        0.01178
O         -0.07737       -0.40901       -0.02640
C          1.94895        0.87188       -0.01070
C          0.44840        0.69027       -0.00704
H          2.33156        0.35903       -0.89908
H          2.33702        0.35688        0.87045
O          2.37463        2.21510        0.05206
H         -1.19283        1.62026        0.00532
H          2.14087        2.65520       -0.77655
