      -----------------------------------------------------------      
     |                   =====================                   |     
     |                           x T B                           |     
     |                   =====================                   |     
     |                         S. Grimme                         |     
     |          Mulliken Center for Theoretical Chemistry        |     
     |                    University of Bonn                     |     
      -----------------------------------------------------------      

   * xtb version 6.4.1 (afa7bdf) compiled by 'ehlert@majestix' on 2021-06-10

   xtb is free software: you can redistribute it and/or modify it under
   the terms of the GNU Lesser General Public License as published by
   the Free Software Foundation, either version 3 of the License, or
   (at your option) any later version.
   
   xtb is distributed in the hope that it will be useful,
   but WITHOUT ANY WARRANTY; without even the implied warranty of
   MERCHANTABILITY or FITNESS FOR A PARTICULAR PURPOSE.  See the
   GNU Lesser General Public License for more details.
   
   Cite this work as:
   * C. Bannwarth, E. Caldeweyher, S. Ehlert, A. Hansen, P. Pracht,
     J. Seibert, S. Spicher, S. Grimme, WIREs Comput. Mol. Sci., 2020, 11,
     e01493. DOI: 10.1002/wcms.1493
   
   for GFN2-xTB:
   * C. Bannwarth, S. Ehlert and S. Grimme., J. Chem. Theory Comput., 2019,
     15, 1652-1671. DOI: 10.1021/acs.jctc.8b01176
   for GFN1-xTB:
   * S. Grimme, C. Bannwarth, P. Shushkov, J. Chem. Theory Comput., 2017,
     13, 1989-2009. DOI: 10.1021/acs.jctc.7b00118
   for GFN0-xTB:
   * P. Pracht, E. Caldeweyher, S. Ehlert, S. Grimme, ChemRxiv, 2019, preprint.
     DOI: 10.26434/chemrxiv.8326202.v1
   for GFN-FF:
   * S. Spicher and S. Grimme, Angew. Chem. Int. Ed., 2020, 59, 15665-15673.
     DOI: 10.1002/anie.202004239
   
   for DFT-D4:
   * E. Caldeweyher, C. Bannwarth and S. Grimme, J. Chem. Phys., 2017,
     147, 034112. DOI: 10.1063/1.4993215
   * E. Caldeweyher, S. Ehlert, A. Hansen, H. Neugebauer, S. Spicher,
     C. Bannwarth and S. Grimme, J. Chem. Phys., 2019, 150, 154122.
     DOI: 10.1063/1.5090222
   * E. Caldeweyher, J.-M. Mewes, S. Ehlert and S. Grimme, Phys. Chem. Chem. Phys.
     2020, 22, 8499-8512. DOI: 10.1039/D0CP00502A
   
   for sTDA-xTB:
   * S. Grimme and C. Bannwarth, J. Chem. Phys., 2016, 145, 054103.
     DOI: 10.1063/1.4959605
   
   in the mass-spec context:
   * V. Asgeirsson, C. Bauer and S. Grimme, Chem. Sci., 2017, 8, 4879.
     DOI: 10.1039/c7sc00601b
   * J. Koopman and S. Grimme, ACS Omega 2019, 4, 12, 15120-15133.
     DOI: 10.1021/acsomega.9b02011
   
   for metadynamics refer to:
   * S. Grimme, J. Chem. Theory Comput., 2019, 155, 2847-2862
     DOI: 10.1021/acs.jctc.9b00143
   
   for SPH calculations refer to:
   * S. Spicher and S. Grimme, J. Chem. Theory Comput., 2021, 17, 1701-1714
     DOI: 10.1021/acs.jctc.0c01306
   
   with help from (in alphabetical order)
   P. Atkinson, C. Bannwarth, F. Bohle, G. Brandenburg, E. Caldeweyher
   M. Checinski, S. Dohm, S. Ehlert, S. Ehrlich, I. Gerasimov, J. Koopman
   C. Lavigne, S. Lehtola, F. März, M. Müller, F. Musil, H. Neugebauer
   J. Pisarek, C. Plett, P. Pracht, J. Seibert, P. Shushkov, S. Spicher
   M. Stahn, M. Steiner, T. Strunk, J. Stückrath, T. Rose, and J. Unsleber
   
 * started run on 2021/11/15 at 09:23:08.009     

           -------------------------------------------------
          |                Calculation Setup                |
           -------------------------------------------------

          program call               : xtb 10_bisphenol-A.xyz --gfn2 --chrg 0 --uhf 0 --alpb water -P 1
          coordinate file            : 10_bisphenol-A.xyz
          omp threads                :                     1
          number of atoms            :                    33
          number of electrons        :                    88
          charge                     :                     0
          spin                       :                   0.0
          first test random number   :      0.58219645846947

   ID    Z sym.   atoms
    1    6 C      1-6, 11-15, 17, 19, 26, 30
    2    1 H      7-10, 16, 18, 20, 21, 23, 25, 27-29, 31-33
    3    8 O      22, 24

           -------------------------------------------------
          |                 G F N 2 - x T B                 |
           -------------------------------------------------

        Reference                      10.1021/acs.jctc.8b01176
      * Hamiltonian:
        H0-scaling (s, p, d)           1.850000    2.230000    2.230000
        zeta-weighting                 0.500000
      * Dispersion:
        s8                             2.700000
        a1                             0.520000
        a2                             5.000000
        s9                             5.000000
      * Repulsion:
        kExp                           1.500000    1.000000
        rExp                           1.000000
      * Coulomb:
        alpha                          2.000000
        third order                    shell-resolved
        anisotropic                    true
        a3                             3.000000
        a5                             4.000000
        cn-shift                       1.200000
        cn-exp                         4.000000
        max-rad                        5.000000

      * Solvation model:               ALPB
        Solvent                        water
        Parameter file                 internal GFN2-xTB/ALPB
        Dielectric constant                8.0200E+01
        Reference state                gsolv [1 M gas/solution]
        Free energy shift                  1.0808E-03 Eh       6.7819E-01 kcal/mol
        Temperature                        2.9815E+02 K
        Density                            1.0000E+00 kg/L
        Solvent mass                       1.8000E+01 g/mol
        Interaction kernel             P16
        Born radius scaling (c1)           1.4744E+00
        Born radii integrator          GBOBC
        Born offset                        0.0000E+00 a0       0.0000E+00 AA
        H-bond correction              true
        Ion screening                  false
        Surface tension                    1.0000E-05 Eh       1.5569E+01 dyn/cm
        Grid points                               230 per atom
q/qsh data taken from xtbrestart
CAMM data taken from xtbrestart

          ...................................................
          :                      SETUP                      :
          :.................................................:
          :  # basis functions                  84          :
          :  # atomic orbitals                  84          :
          :  # shells                           50          :
          :  # electrons                        88          :
          :  max. iterations                   250          :
          :  Hamiltonian                  GFN2-xTB          :
          :  restarted?                       true          :
          :  GBSA solvation                   true          :
          :  PC potential                    false          :
          :  electronic temp.          300.0000000     K    :
          :  accuracy                    1.0000000          :
          :  -> integral cutoff          0.2500000E+02      :
          :  -> integral neglect         0.1000000E-07      :
          :  -> SCF convergence          0.1000000E-05 Eh   :
          :  -> wf. convergence          0.1000000E-03 e    :
          :  Broyden damping             0.4000000          :
          ...................................................

 iter      E             dE          RMSdq      gap      omega  full diag
   1    -49.1474012 -0.491474E+02  0.102E-04    4.07       0.0  T
   2    -49.1474012 -0.444942E-10  0.641E-05    4.07     271.4  T
   3    -49.1474012 -0.670752E-11  0.339E-05    4.07     512.8  T

   *** convergence criteria satisfied after 3 iterations ***

         #    Occupation            Energy/Eh            Energy/eV
      -------------------------------------------------------------
         1        2.0000           -0.7040275             -19.1576
       ...           ...                  ...                  ...
        38        2.0000           -0.4203004             -11.4370
        39        2.0000           -0.4149320             -11.2909
        40        2.0000           -0.4082859             -11.1100
        41        2.0000           -0.3990668             -10.8592
        42        2.0000           -0.3985861             -10.8461
        43        2.0000           -0.3776099             -10.2753
        44        2.0000           -0.3713035             -10.1037 (HOMO)
        45                         -0.2219093              -6.0385 (LUMO)
        46                         -0.2207236              -6.0062
        47                         -0.2133600              -5.8058
        48                         -0.2084670              -5.6727
        49                         -0.0915871              -2.4922
       ...                                ...                  ...
        84                          0.6426693              17.4879
      -------------------------------------------------------------
                  HL-Gap            0.1493942 Eh            4.0652 eV
             Fermi-level           -0.2966064 Eh           -8.0711 eV

 SCC (total)                   0 d,  0 h,  0 min,  0.023 sec
 SCC setup                      ...        0 min,  0.001 sec (  4.214%)
 Dispersion                     ...        0 min,  0.000 sec (  1.707%)
 classical contributions        ...        0 min,  0.000 sec (  0.242%)
 integral evaluation            ...        0 min,  0.005 sec ( 20.305%)
 iterations                     ...        0 min,  0.005 sec ( 22.025%)
 molecular gradient             ...        0 min,  0.012 sec ( 50.141%)
 printout                       ...        0 min,  0.000 sec (  1.239%)

         :::::::::::::::::::::::::::::::::::::::::::::::::::::
         ::                     SUMMARY                     ::
         :::::::::::::::::::::::::::::::::::::::::::::::::::::
         :: total energy             -48.419092756451 Eh    ::
         :: total w/o Gsasa/hb       -48.409235367898 Eh    ::
         :: gradient norm              0.027379342095 Eh/a0 ::
         :: HOMO-LUMO gap              4.065223220585 eV    ::
         ::.................................................::
         :: SCC energy               -49.147401181310 Eh    ::
         :: -> isotropic ES            0.059819455237 Eh    ::
         :: -> anisotropic ES          0.008123181130 Eh    ::
         :: -> anisotropic XC          0.021115403291 Eh    ::
         :: -> dispersion             -0.034163741972 Eh    ::
         :: -> Gsolv                  -0.018011896428 Eh    ::
         ::    -> Gelec               -0.008154507875 Eh    ::
         ::    -> Gsasa                0.000722493912 Eh    ::
         ::    -> Ghb                 -0.011660642163 Eh    ::
         ::    -> Gshift               0.001080759698 Eh    ::
         :: repulsion energy           0.727939271361 Eh    ::
         :: add. restraining           0.000000000000 Eh    ::
         :: total charge              -0.000000000000 e     ::
         :::::::::::::::::::::::::::::::::::::::::::::::::::::

           -------------------------------------------------
          |                Property Printout                |
           -------------------------------------------------

    * Orbital Energies and Occupations

         #    Occupation            Energy/Eh            Energy/eV
      -------------------------------------------------------------
         1        2.0000           -0.7040275             -19.1576
       ...           ...                  ...                  ...
        32        2.0000           -0.4574461             -12.4477
        33        2.0000           -0.4542146             -12.3598
        34        2.0000           -0.4495702             -12.2334
        35        2.0000           -0.4465291             -12.1507
        36        2.0000           -0.4375662             -11.9068
        37        2.0000           -0.4282302             -11.6527
        38        2.0000           -0.4203004             -11.4370
        39        2.0000           -0.4149320             -11.2909
        40        2.0000           -0.4082859             -11.1100
        41        2.0000           -0.3990668             -10.8592
        42        2.0000           -0.3985861             -10.8461
        43        2.0000           -0.3776099             -10.2753
        44        2.0000           -0.3713035             -10.1037 (HOMO)
        45                         -0.2219093              -6.0385 (LUMO)
        46                         -0.2207236              -6.0062
        47                         -0.2133600              -5.8058
        48                         -0.2084670              -5.6727
        49                         -0.0915871              -2.4922
        50                         -0.0912781              -2.4838
        51                          0.0500820               1.3628
        52                          0.0568735               1.5476
        53                          0.0745182               2.0277
        54                          0.0778297               2.1179
        55                          0.0998092               2.7159
       ...                                ...                  ...
        84                          0.6426693              17.4879
      -------------------------------------------------------------
                  HL-Gap            0.1493942 Eh            4.0652 eV
             Fermi-level           -0.2966064 Eh           -8.0711 eV

     #   Z          covCN         q      C6AA      α(0)
     1   6 C        2.962    -0.001    28.051     8.687
     2   6 C        2.921    -0.039    28.971     8.827
     3   6 C        2.910    -0.076    29.897     8.966
     4   6 C        2.842     0.138    24.991     8.193
     5   6 C        2.911    -0.064    29.584     8.919
     6   6 C        2.920    -0.044    29.091     8.845
     7   1 H        0.925     0.039     2.461     2.453
     8   1 H        0.925     0.046     2.366     2.405
     9   1 H        0.925     0.034     2.537     2.491
    10   1 H        0.925     0.044     2.401     2.423
    11   6 C        3.899     0.018    20.216     6.391
    12   6 C        2.962    -0.001    28.048     8.687
    13   6 C        2.919    -0.044    29.092     8.845
    14   6 C        2.921    -0.039    28.969     8.826
    15   6 C        2.910    -0.078    29.937     8.972
    16   1 H        0.925     0.047     2.352     2.398
    17   6 C        2.911    -0.062    29.542     8.912
    18   1 H        0.925     0.032     2.554     2.499
    19   6 C        2.842     0.138    24.989     8.192
    20   1 H        0.925     0.041     2.441     2.443
    21   1 H        0.925     0.042     2.421     2.433
    22   8 O        1.659    -0.468    22.205     6.361
    23   1 H        0.805     0.367     0.550     1.164
    24   8 O        1.659    -0.468    22.212     6.362
    25   1 H        0.805     0.368     0.549     1.163
    26   6 C        3.756    -0.108    22.623     6.782
    27   1 H        0.924     0.044     2.395     2.420
    28   1 H        0.924     0.038     2.473     2.459
    29   1 H        0.924     0.040     2.451     2.449
    30   6 C        3.756    -0.109    22.631     6.783
    31   1 H        0.924     0.040     2.455     2.450
    32   1 H        0.924     0.045     2.387     2.416
    33   1 H        0.924     0.040     2.454     2.450

 Mol. C6AA /au·bohr⁶  :      12218.734110
 Mol. C8AA /au·bohr⁸  :     293640.143004
 Mol. α(0) /au        :        174.068643


Wiberg/Mayer (AO) data.
largest (>0.10) Wiberg bond orders for each atom

 ---------------------------------------------------------------------------
     #   Z sym  total        # sym  WBO       # sym  WBO       # sym  WBO
 ---------------------------------------------------------------------------
     1   6 C    3.984 --     6 C    1.416     2 C    1.400    11 C    0.973
     2   6 C    3.991 --     3 C    1.459     1 C    1.400     9 H    0.968
                             5 C    0.109
     3   6 C    3.986 --     2 C    1.459     4 C    1.366     7 H    0.966
                             6 C    0.105
     4   6 C    3.935 --     5 C    1.379     3 C    1.366    22 O    1.060
     5   6 C    3.987 --     6 C    1.443     4 C    1.379    10 H    0.969
                             2 C    0.109
     6   6 C    3.989 --     5 C    1.443     1 C    1.416     8 H    0.965
                             3 C    0.105
     7   1 H    0.998 --     3 C    0.966
     8   1 H    0.998 --     6 C    0.965
     9   1 H    0.999 --     2 C    0.968
    10   1 H    0.998 --     5 C    0.969
    11   6 C    3.989 --    30 C    0.988    26 C    0.987    12 C    0.973
                             1 C    0.973
    12   6 C    3.984 --    13 C    1.423    14 C    1.393    11 C    0.973
    13   6 C    3.989 --    15 C    1.434    12 C    1.423    16 H    0.965
                            17 C    0.107
    14   6 C    3.991 --    17 C    1.468    12 C    1.393    18 H    0.969
                            15 C    0.107
    15   6 C    3.985 --    13 C    1.434    19 C    1.385    20 H    0.966
                            14 C    0.107
    16   1 H    0.998 --    13 C    0.965
    17   6 C    3.988 --    14 C    1.468    19 C    1.360    21 H    0.969
                            13 C    0.107
    18   1 H    0.999 --    14 C    0.969
    19   6 C    3.935 --    15 C    1.385    17 C    1.360    24 O    1.060
    20   1 H    0.998 --    15 C    0.966
    21   1 H    0.998 --    17 C    0.969
    22   8 O    2.060 --     4 C    1.060    23 H    0.846
    23   1 H    0.865 --    22 O    0.846
    24   8 O    2.060 --    19 C    1.060    25 H    0.846
    25   1 H    0.865 --    24 O    0.846
    26   6 C    3.994 --    11 C    0.987    29 H    0.985    28 H    0.984
                            27 H    0.982
    27   1 H    0.997 --    26 C    0.982
    28   1 H    0.999 --    26 C    0.984
    29   1 H    0.998 --    26 C    0.985
    30   6 C    3.994 --    11 C    0.988    31 H    0.985    33 H    0.984
                            32 H    0.982
    31   1 H    0.998 --    30 C    0.985
    32   1 H    0.997 --    30 C    0.982
    33   1 H    0.998 --    30 C    0.984
 ---------------------------------------------------------------------------

Topologies differ in total number of bonds
Writing topology from bond orders to xtbtopo.mol

molecular dipole:
                 x           y           z       tot (Debye)
 q only:       -0.443       0.341       0.981
   full:       -0.552       0.270       1.219       3.469
molecular quadrupole (traceless):
                xx          xy          yy          xz          yz          zz
 q only:       -1.610      -5.043       0.817      -2.333      -6.090       0.793
  q+dip:       -1.211      -6.319      -0.921      -5.625      -7.691       2.132
   full:       -1.810      -6.361       0.052      -3.524      -7.766       1.758


           -------------------------------------------------
          | TOTAL ENERGY              -48.419092756451 Eh   |
          | GRADIENT NORM               0.027379342095 Eh/α |
          | HOMO-LUMO GAP               4.065223220585 eV   |
           -------------------------------------------------

------------------------------------------------------------------------
 * finished run on 2021/11/15 at 09:23:08.069     
------------------------------------------------------------------------
 total:
 * wall-time:     0 d,  0 h,  0 min,  0.060 sec
 *  cpu-time:     0 d,  0 h,  0 min,  0.047 sec
 * ratio c/w:     0.786 speedup
 SCF:
 * wall-time:     0 d,  0 h,  0 min,  0.023 sec
 *  cpu-time:     0 d,  0 h,  0 min,  0.031 sec
 * ratio c/w:     1.337 speedup

