      -----------------------------------------------------------      
     |                   =====================                   |     
     |                           x T B                           |     
     |                   =====================                   |     
     |                         S. Grimme                         |     
     |          Mulliken Center for Theoretical Chemistry        |     
     |                    University of Bonn                     |     
      -----------------------------------------------------------      

   * xtb version 6.4.1 (afa7bdf) compiled by 'ehlert@majestix' on 2021-06-10

   xtb is free software: you can redistribute it and/or modify it under
   the terms of the GNU Lesser General Public License as published by
   the Free Software Foundation, either version 3 of the License, or
   (at your option) any later version.
   
   xtb is distributed in the hope that it will be useful,
   but WITHOUT ANY WARRANTY; without even the implied warranty of
   MERCHANTABILITY or FITNESS FOR A PARTICULAR PURPOSE.  See the
   GNU Lesser General Public License for more details.
   
   Cite this work as:
   * C. Bannwarth, E. Caldeweyher, S. Ehlert, A. Hansen, P. Pracht,
     J. Seibert, S. Spicher, S. Grimme, WIREs Comput. Mol. Sci., 2020, 11,
     e01493. DOI: 10.1002/wcms.1493
   
   for GFN2-xTB:
   * C. Bannwarth, S. Ehlert and S. Grimme., J. Chem. Theory Comput., 2019,
     15, 1652-1671. DOI: 10.1021/acs.jctc.8b01176
   for GFN1-xTB:
   * S. Grimme, C. Bannwarth, P. Shushkov, J. Chem. Theory Comput., 2017,
     13, 1989-2009. DOI: 10.1021/acs.jctc.7b00118
   for GFN0-xTB:
   * P. Pracht, E. Caldeweyher, S. Ehlert, S. Grimme, ChemRxiv, 2019, preprint.
     DOI: 10.26434/chemrxiv.8326202.v1
   for GFN-FF:
   * S. Spicher and S. Grimme, Angew. Chem. Int. Ed., 2020, 59, 15665-15673.
     DOI: 10.1002/anie.202004239
   
   for DFT-D4:
   * E. Caldeweyher, C. Bannwarth and S. Grimme, J. Chem. Phys., 2017,
     147, 034112. DOI: 10.1063/1.4993215
   * E. Caldeweyher, S. Ehlert, A. Hansen, H. Neugebauer, S. Spicher,
     C. Bannwarth and S. Grimme, J. Chem. Phys., 2019, 150, 154122.
     DOI: 10.1063/1.5090222
   * E. Caldeweyher, J.-M. Mewes, S. Ehlert and S. Grimme, Phys. Chem. Chem. Phys.
     2020, 22, 8499-8512. DOI: 10.1039/D0CP00502A
   
   for sTDA-xTB:
   * S. Grimme and C. Bannwarth, J. Chem. Phys., 2016, 145, 054103.
     DOI: 10.1063/1.4959605
   
   in the mass-spec context:
   * V. Asgeirsson, C. Bauer and S. Grimme, Chem. Sci., 2017, 8, 4879.
     DOI: 10.1039/c7sc00601b
   * J. Koopman and S. Grimme, ACS Omega 2019, 4, 12, 15120-15133.
     DOI: 10.1021/acsomega.9b02011
   
   for metadynamics refer to:
   * S. Grimme, J. Chem. Theory Comput., 2019, 155, 2847-2862
     DOI: 10.1021/acs.jctc.9b00143
   
   for SPH calculations refer to:
   * S. Spicher and S. Grimme, J. Chem. Theory Comput., 2021, 17, 1701-1714
     DOI: 10.1021/acs.jctc.0c01306
   
   with help from (in alphabetical order)
   P. Atkinson, C. Bannwarth, F. Bohle, G. Brandenburg, E. Caldeweyher
   M. Checinski, S. Dohm, S. Ehlert, S. Ehrlich, I. Gerasimov, J. Koopman
   C. Lavigne, S. Lehtola, F. März, M. Müller, F. Musil, H. Neugebauer
   J. Pisarek, C. Plett, P. Pracht, J. Seibert, P. Shushkov, S. Spicher
   M. Stahn, M. Steiner, T. Strunk, J. Stückrath, T. Rose, and J. Unsleber
   
 * started run on 2021/11/15 at 09:23:10.190     

           -------------------------------------------------
          |                Calculation Setup                |
           -------------------------------------------------

          program call               : xtb 36_1,4-dimethoxybenzene.xyz --gfn2 --chrg 0 --uhf 0 --alpb water -P 1
          coordinate file            : 36_1,4-dimethoxybenzene.xyz
          omp threads                :                     1
          number of atoms            :                    20
          number of electrons        :                    54
          charge                     :                     0
          spin                       :                   0.0
          first test random number   :      0.28617142016281

   ID    Z sym.   atoms
    1    6 C      1-6, 10, 16
    2    1 H      7, 8, 11-14, 17-20
    3    8 O      9, 15

           -------------------------------------------------
          |                 G F N 2 - x T B                 |
           -------------------------------------------------

        Reference                      10.1021/acs.jctc.8b01176
      * Hamiltonian:
        H0-scaling (s, p, d)           1.850000    2.230000    2.230000
        zeta-weighting                 0.500000
      * Dispersion:
        s8                             2.700000
        a1                             0.520000
        a2                             5.000000
        s9                             5.000000
      * Repulsion:
        kExp                           1.500000    1.000000
        rExp                           1.000000
      * Coulomb:
        alpha                          2.000000
        third order                    shell-resolved
        anisotropic                    true
        a3                             3.000000
        a5                             4.000000
        cn-shift                       1.200000
        cn-exp                         4.000000
        max-rad                        5.000000

      * Solvation model:               ALPB
        Solvent                        water
        Parameter file                 internal GFN2-xTB/ALPB
        Dielectric constant                8.0200E+01
        Reference state                gsolv [1 M gas/solution]
        Free energy shift                  1.0808E-03 Eh       6.7819E-01 kcal/mol
        Temperature                        2.9815E+02 K
        Density                            1.0000E+00 kg/L
        Solvent mass                       1.8000E+01 g/mol
        Interaction kernel             P16
        Born radius scaling (c1)           1.4744E+00
        Born radii integrator          GBOBC
        Born offset                        0.0000E+00 a0       0.0000E+00 AA
        H-bond correction              true
        Ion screening                  false
        Surface tension                    1.0000E-05 Eh       1.5569E+01 dyn/cm
        Grid points                               230 per atom
q/qsh data taken from xtbrestart
CAMM data taken from xtbrestart

          ...................................................
          :                      SETUP                      :
          :.................................................:
          :  # basis functions                  50          :
          :  # atomic orbitals                  50          :
          :  # shells                           30          :
          :  # electrons                        54          :
          :  max. iterations                   250          :
          :  Hamiltonian                  GFN2-xTB          :
          :  restarted?                       true          :
          :  GBSA solvation                   true          :
          :  PC potential                    false          :
          :  electronic temp.          300.0000000     K    :
          :  accuracy                    1.0000000          :
          :  -> integral cutoff          0.2500000E+02      :
          :  -> integral neglect         0.1000000E-07      :
          :  -> SCF convergence          0.1000000E-05 Eh   :
          :  -> wf. convergence          0.1000000E-03 e    :
          :  Broyden damping             0.4000000          :
          ...................................................

 iter      E             dE          RMSdq      gap      omega  full diag
   1    -30.7443081 -0.307443E+02  0.410E-05    3.75       0.0  T
   2    -30.7443081 -0.332179E-11  0.247E-05    3.75     903.8  T
   3    -30.7443081 -0.657252E-12  0.119E-05    3.75    1880.6  T

   *** convergence criteria satisfied after 3 iterations ***

         #    Occupation            Energy/Eh            Energy/eV
      -------------------------------------------------------------
         1        2.0000           -0.7131137             -19.4048
       ...           ...                  ...                  ...
        21        2.0000           -0.4627952             -12.5933
        22        2.0000           -0.4544557             -12.3664
        23        2.0000           -0.4530589             -12.3284
        24        2.0000           -0.4249119             -11.5624
        25        2.0000           -0.4201058             -11.4317
        26        2.0000           -0.4055875             -11.0366
        27        2.0000           -0.3657778              -9.9533 (HOMO)
        28                         -0.2280963              -6.2068 (LUMO)
        29                         -0.2076291              -5.6499
        30                         -0.0915663              -2.4916
        31                          0.0114605               0.3119
        32                          0.0264149               0.7188
       ...                                ...                  ...
        50                          0.6410656              17.4443
      -------------------------------------------------------------
                  HL-Gap            0.1376815 Eh            3.7465 eV
             Fermi-level           -0.2969371 Eh           -8.0801 eV

 SCC (total)                   0 d,  0 h,  0 min,  0.009 sec
 SCC setup                      ...        0 min,  0.000 sec (  5.178%)
 Dispersion                     ...        0 min,  0.000 sec (  1.476%)
 classical contributions        ...        0 min,  0.000 sec (  0.270%)
 integral evaluation            ...        0 min,  0.002 sec ( 19.724%)
 iterations                     ...        0 min,  0.002 sec ( 26.684%)
 molecular gradient             ...        0 min,  0.004 sec ( 44.527%)
 printout                       ...        0 min,  0.000 sec (  1.872%)

         :::::::::::::::::::::::::::::::::::::::::::::::::::::
         ::                     SUMMARY                     ::
         :::::::::::::::::::::::::::::::::::::::::::::::::::::
         :: total energy             -30.348233855324 Eh    ::
         :: total w/o Gsasa/hb       -30.347939663035 Eh    ::
         :: gradient norm              0.019437376915 Eh/a0 ::
         :: HOMO-LUMO gap              3.746504987563 eV    ::
         ::.................................................::
         :: SCC energy               -30.744308110487 Eh    ::
         :: -> isotropic ES            0.037517687056 Eh    ::
         :: -> anisotropic ES          0.004185972588 Eh    ::
         :: -> anisotropic XC          0.009414410539 Eh    ::
         :: -> dispersion             -0.014983681821 Eh    ::
         :: -> Gsolv                  -0.005490675310 Eh    ::
         ::    -> Gelec               -0.005196483020 Eh    ::
         ::    -> Gsasa                0.000137286042 Eh    ::
         ::    -> Ghb                 -0.001512238030 Eh    ::
         ::    -> Gshift               0.001080759698 Eh    ::
         :: repulsion energy           0.396102956882 Eh    ::
         :: add. restraining           0.000000000000 Eh    ::
         :: total charge              -0.000000000000 e     ::
         :::::::::::::::::::::::::::::::::::::::::::::::::::::

           -------------------------------------------------
          |                Property Printout                |
           -------------------------------------------------

    * Orbital Energies and Occupations

         #    Occupation            Energy/Eh            Energy/eV
      -------------------------------------------------------------
         1        2.0000           -0.7131137             -19.4048
       ...           ...                  ...                  ...
        15        2.0000           -0.5205771             -14.1656
        16        2.0000           -0.4983974             -13.5621
        17        2.0000           -0.4834598             -13.1556
        18        2.0000           -0.4806160             -13.0782
        19        2.0000           -0.4759586             -12.9515
        20        2.0000           -0.4729328             -12.8692
        21        2.0000           -0.4627952             -12.5933
        22        2.0000           -0.4544557             -12.3664
        23        2.0000           -0.4530589             -12.3284
        24        2.0000           -0.4249119             -11.5624
        25        2.0000           -0.4201058             -11.4317
        26        2.0000           -0.4055875             -11.0366
        27        2.0000           -0.3657778              -9.9533 (HOMO)
        28                         -0.2280963              -6.2068 (LUMO)
        29                         -0.2076291              -5.6499
        30                         -0.0915663              -2.4916
        31                          0.0114605               0.3119
        32                          0.0264149               0.7188
        33                          0.1032586               2.8098
        34                          0.1077880               2.9331
        35                          0.1246260               3.3912
        36                          0.1313245               3.5735
        37                          0.1580752               4.3014
        38                          0.1650209               4.4904
       ...                                ...                  ...
        50                          0.6410656              17.4443
      -------------------------------------------------------------
                  HL-Gap            0.1376815 Eh            3.7465 eV
             Fermi-level           -0.2969371 Eh           -8.0801 eV

     #   Z          covCN         q      C6AA      α(0)
     1   6 C        2.912    -0.070    29.754     8.945
     2   6 C        2.857     0.129    25.161     8.222
     3   6 C        2.915    -0.063    29.577     8.918
     4   6 C        2.912    -0.070    29.754     8.945
     5   6 C        2.857     0.129    25.161     8.222
     6   6 C        2.915    -0.063    29.577     8.918
     7   1 H        0.925     0.054     2.269     2.355
     8   1 H        0.925     0.054     2.275     2.359
     9   8 O        1.703    -0.310    19.164     5.910
    10   6 C        3.639     0.022    20.575     6.524
    11   1 H        0.924     0.053     2.283     2.363
    12   1 H        0.924     0.079     1.993     2.207
    13   1 H        0.924     0.053     2.283     2.363
    14   1 H        0.925     0.054     2.269     2.355
    15   8 O        1.703    -0.310    19.164     5.910
    16   6 C        3.639     0.022    20.575     6.524
    17   1 H        0.924     0.079     1.993     2.207
    18   1 H        0.924     0.053     2.283     2.363
    19   1 H        0.924     0.053     2.283     2.363
    20   1 H        0.925     0.054     2.275     2.359

 Mol. C6AA /au·bohr⁶  :       4146.973262
 Mol. C8AA /au·bohr⁸  :      96328.302599
 Mol. α(0) /au        :        100.333575


Wiberg/Mayer (AO) data.
largest (>0.10) Wiberg bond orders for each atom

 ---------------------------------------------------------------------------
     #   Z sym  total        # sym  WBO       # sym  WBO       # sym  WBO
 ---------------------------------------------------------------------------
     1   6 C    3.986 --     6 C    1.452     2 C    1.367     8 H    0.964
                             4 C    0.102
     2   6 C    3.933 --     1 C    1.367     3 C    1.366     9 O    1.045
     3   6 C    3.987 --     4 C    1.452     2 C    1.366    14 H    0.968
                             6 C    0.111
     4   6 C    3.986 --     3 C    1.452     5 C    1.367    20 H    0.964
                             1 C    0.102
     5   6 C    3.933 --     4 C    1.367     6 C    1.366    15 O    1.045
     6   6 C    3.987 --     1 C    1.452     5 C    1.366     7 H    0.968
                             3 C    0.111
     7   1 H    0.997 --     6 C    0.968
     8   1 H    0.997 --     1 C    0.964
     9   8 O    2.188 --     2 C    1.045    10 C    0.972
    10   6 C    3.932 --    12 H    0.978    13 H    0.977    11 H    0.977
                             9 O    0.972
    11   1 H    0.997 --    10 C    0.977
    12   1 H    0.993 --    10 C    0.978
    13   1 H    0.997 --    10 C    0.977
    14   1 H    0.997 --     3 C    0.968
    15   8 O    2.188 --     5 C    1.045    16 C    0.972
    16   6 C    3.932 --    17 H    0.978    18 H    0.977    19 H    0.977
                            15 O    0.972
    17   1 H    0.993 --    16 C    0.978
    18   1 H    0.997 --    16 C    0.977
    19   1 H    0.997 --    16 C    0.977
    20   1 H    0.997 --     4 C    0.964
 ---------------------------------------------------------------------------

Topologies differ in total number of bonds
Writing topology from bond orders to xtbtopo.mol

molecular dipole:
                 x           y           z       tot (Debye)
 q only:       -0.000      -0.000      -0.000
   full:        0.000      -0.000      -0.000       0.000
molecular quadrupole (traceless):
                xx          xy          yy          xz          yz          zz
 q only:        9.317       9.427      -3.689       0.000       0.000      -5.628
  q+dip:        8.106      10.185      -1.709       0.000       0.000      -6.397
   full:        8.213      10.793      -3.209       0.000       0.000      -5.003


           -------------------------------------------------
          | TOTAL ENERGY              -30.348233855324 Eh   |
          | GRADIENT NORM               0.019437376915 Eh/α |
          | HOMO-LUMO GAP               3.746504987563 eV   |
           -------------------------------------------------

------------------------------------------------------------------------
 * finished run on 2021/11/15 at 09:23:10.223     
------------------------------------------------------------------------
 total:
 * wall-time:     0 d,  0 h,  0 min,  0.034 sec
 *  cpu-time:     0 d,  0 h,  0 min,  0.031 sec
 * ratio c/w:     0.929 speedup
 SCF:
 * wall-time:     0 d,  0 h,  0 min,  0.010 sec
 *  cpu-time:     0 d,  0 h,  0 min,  0.000 sec
 * ratio c/w:     0.000 speedup

