      -----------------------------------------------------------      
     |                   =====================                   |     
     |                           x T B                           |     
     |                   =====================                   |     
     |                         S. Grimme                         |     
     |          Mulliken Center for Theoretical Chemistry        |     
     |                    University of Bonn                     |     
      -----------------------------------------------------------      

   * xtb version 6.4.1 (afa7bdf) compiled by 'ehlert@majestix' on 2021-06-10

   xtb is free software: you can redistribute it and/or modify it under
   the terms of the GNU Lesser General Public License as published by
   the Free Software Foundation, either version 3 of the License, or
   (at your option) any later version.
   
   xtb is distributed in the hope that it will be useful,
   but WITHOUT ANY WARRANTY; without even the implied warranty of
   MERCHANTABILITY or FITNESS FOR A PARTICULAR PURPOSE.  See the
   GNU Lesser General Public License for more details.
   
   Cite this work as:
   * C. Bannwarth, E. Caldeweyher, S. Ehlert, A. Hansen, P. Pracht,
     J. Seibert, S. Spicher, S. Grimme, WIREs Comput. Mol. Sci., 2020, 11,
     e01493. DOI: 10.1002/wcms.1493
   
   for GFN2-xTB:
   * C. Bannwarth, S. Ehlert and S. Grimme., J. Chem. Theory Comput., 2019,
     15, 1652-1671. DOI: 10.1021/acs.jctc.8b01176
   for GFN1-xTB:
   * S. Grimme, C. Bannwarth, P. Shushkov, J. Chem. Theory Comput., 2017,
     13, 1989-2009. DOI: 10.1021/acs.jctc.7b00118
   for GFN0-xTB:
   * P. Pracht, E. Caldeweyher, S. Ehlert, S. Grimme, ChemRxiv, 2019, preprint.
     DOI: 10.26434/chemrxiv.8326202.v1
   for GFN-FF:
   * S. Spicher and S. Grimme, Angew. Chem. Int. Ed., 2020, 59, 15665-15673.
     DOI: 10.1002/anie.202004239
   
   for DFT-D4:
   * E. Caldeweyher, C. Bannwarth and S. Grimme, J. Chem. Phys., 2017,
     147, 034112. DOI: 10.1063/1.4993215
   * E. Caldeweyher, S. Ehlert, A. Hansen, H. Neugebauer, S. Spicher,
     C. Bannwarth and S. Grimme, J. Chem. Phys., 2019, 150, 154122.
     DOI: 10.1063/1.5090222
   * E. Caldeweyher, J.-M. Mewes, S. Ehlert and S. Grimme, Phys. Chem. Chem. Phys.
     2020, 22, 8499-8512. DOI: 10.1039/D0CP00502A
   
   for sTDA-xTB:
   * S. Grimme and C. Bannwarth, J. Chem. Phys., 2016, 145, 054103.
     DOI: 10.1063/1.4959605
   
   in the mass-spec context:
   * V. Asgeirsson, C. Bauer and S. Grimme, Chem. Sci., 2017, 8, 4879.
     DOI: 10.1039/c7sc00601b
   * J. Koopman and S. Grimme, ACS Omega 2019, 4, 12, 15120-15133.
     DOI: 10.1021/acsomega.9b02011
   
   for metadynamics refer to:
   * S. Grimme, J. Chem. Theory Comput., 2019, 155, 2847-2862
     DOI: 10.1021/acs.jctc.9b00143
   
   for SPH calculations refer to:
   * S. Spicher and S. Grimme, J. Chem. Theory Comput., 2021, 17, 1701-1714
     DOI: 10.1021/acs.jctc.0c01306
   
   with help from (in alphabetical order)
   P. Atkinson, C. Bannwarth, F. Bohle, G. Brandenburg, E. Caldeweyher
   M. Checinski, S. Dohm, S. Ehlert, S. Ehrlich, I. Gerasimov, J. Koopman
   C. Lavigne, S. Lehtola, F. März, M. Müller, F. Musil, H. Neugebauer
   J. Pisarek, C. Plett, P. Pracht, J. Seibert, P. Shushkov, S. Spicher
   M. Stahn, M. Steiner, T. Strunk, J. Stückrath, T. Rose, and J. Unsleber
   
 * started run on 2021/11/15 at 09:23:10.139     

           -------------------------------------------------
          |                Calculation Setup                |
           -------------------------------------------------

          program call               : xtb 33_1,2,4-trimethoxybenzene.xyz --gfn2 --chrg 0 --uhf 0 --alpb water -P 1
          coordinate file            : 33_1,2,4-trimethoxybenzene.xyz
          omp threads                :                     1
          number of atoms            :                    24
          number of electrons        :                    66
          charge                     :                     0
          spin                       :                   0.0
          first test random number   :      0.28617142016281

   ID    Z sym.   atoms
    1    6 C      1-6, 10, 15, 21
    2    1 H      7, 8, 11-13, 16-19, 22-24
    3    8 O      9, 14, 20

           -------------------------------------------------
          |                 G F N 2 - x T B                 |
           -------------------------------------------------

        Reference                      10.1021/acs.jctc.8b01176
      * Hamiltonian:
        H0-scaling (s, p, d)           1.850000    2.230000    2.230000
        zeta-weighting                 0.500000
      * Dispersion:
        s8                             2.700000
        a1                             0.520000
        a2                             5.000000
        s9                             5.000000
      * Repulsion:
        kExp                           1.500000    1.000000
        rExp                           1.000000
      * Coulomb:
        alpha                          2.000000
        third order                    shell-resolved
        anisotropic                    true
        a3                             3.000000
        a5                             4.000000
        cn-shift                       1.200000
        cn-exp                         4.000000
        max-rad                        5.000000

      * Solvation model:               ALPB
        Solvent                        water
        Parameter file                 internal GFN2-xTB/ALPB
        Dielectric constant                8.0200E+01
        Reference state                gsolv [1 M gas/solution]
        Free energy shift                  1.0808E-03 Eh       6.7819E-01 kcal/mol
        Temperature                        2.9815E+02 K
        Density                            1.0000E+00 kg/L
        Solvent mass                       1.8000E+01 g/mol
        Interaction kernel             P16
        Born radius scaling (c1)           1.4744E+00
        Born radii integrator          GBOBC
        Born offset                        0.0000E+00 a0       0.0000E+00 AA
        H-bond correction              true
        Ion screening                  false
        Surface tension                    1.0000E-05 Eh       1.5569E+01 dyn/cm
        Grid points                               230 per atom
q/qsh data taken from xtbrestart
CAMM data taken from xtbrestart

          ...................................................
          :                      SETUP                      :
          :.................................................:
          :  # basis functions                  60          :
          :  # atomic orbitals                  60          :
          :  # shells                           36          :
          :  # electrons                        66          :
          :  max. iterations                   250          :
          :  Hamiltonian                  GFN2-xTB          :
          :  restarted?                       true          :
          :  GBSA solvation                   true          :
          :  PC potential                    false          :
          :  electronic temp.          300.0000000     K    :
          :  accuracy                    1.0000000          :
          :  -> integral cutoff          0.2500000E+02      :
          :  -> integral neglect         0.1000000E-07      :
          :  -> SCF convergence          0.1000000E-05 Eh   :
          :  -> wf. convergence          0.1000000E-03 e    :
          :  Broyden damping             0.4000000          :
          ...................................................

 iter      E             dE          RMSdq      gap      omega  full diag
   1    -38.0217424 -0.380217E+02  0.188E-04    3.79       0.0  T
   2    -38.0217424 -0.694698E-10  0.128E-04    3.79     159.2  T
   3    -38.0217424 -0.243716E-10  0.678E-05    3.79     301.2  T

   *** convergence criteria satisfied after 3 iterations ***

         #    Occupation            Energy/Eh            Energy/eV
      -------------------------------------------------------------
         1        2.0000           -0.7154064             -19.4672
       ...           ...                  ...                  ...
        27        2.0000           -0.4577041             -12.4548
        28        2.0000           -0.4504157             -12.2564
        29        2.0000           -0.4454976             -12.1226
        30        2.0000           -0.4276475             -11.6369
        31        2.0000           -0.4223477             -11.4927
        32        2.0000           -0.3893663             -10.5952
        33        2.0000           -0.3605740              -9.8117 (HOMO)
        34                         -0.2212927              -6.0217 (LUMO)
        35                         -0.2072528              -5.6396
        36                         -0.0897756              -2.4429
        37                          0.0090484               0.2462
        38                          0.0123930               0.3372
       ...                                ...                  ...
        60                          0.6659209              18.1206
      -------------------------------------------------------------
                  HL-Gap            0.1392813 Eh            3.7900 eV
             Fermi-level           -0.2909333 Eh           -7.9167 eV

 SCC (total)                   0 d,  0 h,  0 min,  0.012 sec
 SCC setup                      ...        0 min,  0.001 sec (  4.960%)
 Dispersion                     ...        0 min,  0.000 sec (  1.680%)
 classical contributions        ...        0 min,  0.000 sec (  0.273%)
 integral evaluation            ...        0 min,  0.003 sec ( 20.854%)
 iterations                     ...        0 min,  0.003 sec ( 26.130%)
 molecular gradient             ...        0 min,  0.005 sec ( 43.964%)
 printout                       ...        0 min,  0.000 sec (  1.906%)

         :::::::::::::::::::::::::::::::::::::::::::::::::::::
         ::                     SUMMARY                     ::
         :::::::::::::::::::::::::::::::::::::::::::::::::::::
         :: total energy             -37.578136410384 Eh    ::
         :: total w/o Gsasa/hb       -37.577857417859 Eh    ::
         :: gradient norm              0.020060567248 Eh/a0 ::
         :: HOMO-LUMO gap              3.790036114765 eV    ::
         ::.................................................::
         :: SCC energy               -38.021742364177 Eh    ::
         :: -> isotropic ES            0.055799857458 Eh    ::
         :: -> anisotropic ES          0.005631770168 Eh    ::
         :: -> anisotropic XC          0.007618271293 Eh    ::
         :: -> dispersion             -0.018870358335 Eh    ::
         :: -> Gsolv                  -0.009159010880 Eh    ::
         ::    -> Gelec               -0.008880018356 Eh    ::
         ::    -> Gsasa                0.000652122897 Eh    ::
         ::    -> Ghb                 -0.002011875120 Eh    ::
         ::    -> Gshift               0.001080759698 Eh    ::
         :: repulsion energy           0.443601434588 Eh    ::
         :: add. restraining           0.000000000000 Eh    ::
         :: total charge               0.000000000000 e     ::
         :::::::::::::::::::::::::::::::::::::::::::::::::::::

           -------------------------------------------------
          |                Property Printout                |
           -------------------------------------------------

    * Orbital Energies and Occupations

         #    Occupation            Energy/Eh            Energy/eV
      -------------------------------------------------------------
         1        2.0000           -0.7154064             -19.4672
       ...           ...                  ...                  ...
        21        2.0000           -0.4976054             -13.5405
        22        2.0000           -0.4859412             -13.2231
        23        2.0000           -0.4776339             -12.9971
        24        2.0000           -0.4683380             -12.7441
        25        2.0000           -0.4658386             -12.6761
        26        2.0000           -0.4649545             -12.6521
        27        2.0000           -0.4577041             -12.4548
        28        2.0000           -0.4504157             -12.2564
        29        2.0000           -0.4454976             -12.1226
        30        2.0000           -0.4276475             -11.6369
        31        2.0000           -0.4223477             -11.4927
        32        2.0000           -0.3893663             -10.5952
        33        2.0000           -0.3605740              -9.8117 (HOMO)
        34                         -0.2212927              -6.0217 (LUMO)
        35                         -0.2072528              -5.6396
        36                         -0.0897756              -2.4429
        37                          0.0090484               0.2462
        38                          0.0123930               0.3372
        39                          0.0336587               0.9159
        40                          0.0964526               2.6246
        41                          0.1074821               2.9247
        42                          0.1182647               3.2181
        43                          0.1282945               3.4911
        44                          0.1421812               3.8689
       ...                                ...                  ...
        60                          0.6659209              18.1206
      -------------------------------------------------------------
                  HL-Gap            0.1392813 Eh            3.7900 eV
             Fermi-level           -0.2909333 Eh           -7.9167 eV

     #   Z          covCN         q      C6AA      α(0)
     1   6 C        2.860     0.128    25.197     8.228
     2   6 C        2.912    -0.101    30.549     9.063
     3   6 C        2.860     0.120    25.360     8.254
     4   6 C        2.857     0.108    25.620     8.296
     5   6 C        2.915    -0.078    29.950     8.974
     6   6 C        2.910    -0.088    30.197     9.011
     7   1 H        0.925     0.058     2.222     2.331
     8   1 H        0.925     0.055     2.254     2.348
     9   8 O        1.703    -0.302    19.024     5.889
    10   6 C        3.640     0.021    20.583     6.524
    11   1 H        0.924     0.055     2.262     2.352
    12   1 H        0.924     0.081     1.971     2.195
    13   1 H        0.924     0.055     2.262     2.352
    14   8 O        1.703    -0.293    18.868     5.865
    15   6 C        3.640     0.018    20.631     6.532
    16   1 H        0.924     0.057     2.230     2.335
    17   1 H        0.924     0.084     1.936     2.176
    18   1 H        0.924     0.057     2.230     2.335
    19   1 H        0.925     0.063     2.167     2.302
    20   8 O        1.703    -0.306    19.102     5.901
    21   6 C        3.639     0.020    20.604     6.528
    22   1 H        0.924     0.080     1.976     2.198
    23   1 H        0.924     0.054     2.269     2.356
    24   1 H        0.924     0.054     2.269     2.356

 Mol. C6AA /au·bohr⁶  :       5743.027883
 Mol. C8AA /au·bohr⁸  :     131436.856488
 Mol. α(0) /au        :        116.701372


Wiberg/Mayer (AO) data.
largest (>0.10) Wiberg bond orders for each atom

 ---------------------------------------------------------------------------
     #   Z sym  total        # sym  WBO       # sym  WBO       # sym  WBO
 ---------------------------------------------------------------------------
     1   6 C    3.935 --     6 C    1.408     2 C    1.325    20 O    1.048
     2   6 C    3.976 --     3 C    1.429     1 C    1.325    19 H    0.961
     3   6 C    3.937 --     2 C    1.429     4 C    1.254    14 O    1.063
     4   6 C    3.932 --     5 C    1.428     3 C    1.254     9 O    1.046
     5   6 C    3.983 --     4 C    1.428     6 C    1.384     7 H    0.964
     6   6 C    3.981 --     1 C    1.408     5 C    1.384     8 H    0.965
     7   1 H    0.996 --     5 C    0.964
     8   1 H    0.997 --     6 C    0.965
     9   8 O    2.193 --     4 C    1.046    10 C    0.971
    10   6 C    3.930 --    12 H    0.978    13 H    0.976    11 H    0.976
                             9 O    0.971
    11   1 H    0.997 --    10 C    0.976
    12   1 H    0.993 --    10 C    0.978
    13   1 H    0.997 --    10 C    0.976
    14   8 O    2.215 --     3 C    1.063    15 C    0.968
    15   6 C    3.927 --    17 H    0.977    16 H    0.976    18 H    0.976
                            14 O    0.968
    16   1 H    0.997 --    15 C    0.976
    17   1 H    0.992 --    15 C    0.977
    18   1 H    0.997 --    15 C    0.976
    19   1 H    0.995 --     2 C    0.961
    20   8 O    2.190 --     1 C    1.048    21 C    0.971
    21   6 C    3.931 --    22 H    0.978    23 H    0.977    24 H    0.977
                            20 O    0.971
    22   1 H    0.993 --    21 C    0.978
    23   1 H    0.997 --    21 C    0.977
    24   1 H    0.997 --    21 C    0.977
 ---------------------------------------------------------------------------

Topologies differ in total number of bonds
Writing topology from bond orders to xtbtopo.mol

molecular dipole:
                 x           y           z       tot (Debye)
 q only:        0.477      -0.518      -0.000
   full:        0.599      -0.652      -0.000       2.251
molecular quadrupole (traceless):
                xx          xy          yy          xz          yz          zz
 q only:        0.349      -0.733       8.256       0.004       0.000      -8.604
  q+dip:       -1.628      -0.823       9.186       0.004       0.000      -7.558
   full:       -2.004      -0.798       8.886       0.004       0.000      -6.882


           -------------------------------------------------
          | TOTAL ENERGY              -37.578136410384 Eh   |
          | GRADIENT NORM               0.020060567248 Eh/α |
          | HOMO-LUMO GAP               3.790036114765 eV   |
           -------------------------------------------------

------------------------------------------------------------------------
 * finished run on 2021/11/15 at 09:23:10.177     
------------------------------------------------------------------------
 total:
 * wall-time:     0 d,  0 h,  0 min,  0.038 sec
 *  cpu-time:     0 d,  0 h,  0 min,  0.016 sec
 * ratio c/w:     0.409 speedup
 SCF:
 * wall-time:     0 d,  0 h,  0 min,  0.012 sec
 *  cpu-time:     0 d,  0 h,  0 min,  0.016 sec
 * ratio c/w:     1.263 speedup

