      -----------------------------------------------------------      
     |                   =====================                   |     
     |                           x T B                           |     
     |                   =====================                   |     
     |                         S. Grimme                         |     
     |          Mulliken Center for Theoretical Chemistry        |     
     |                    University of Bonn                     |     
      -----------------------------------------------------------      

   * xtb version 6.4.1 (afa7bdf) compiled by 'ehlert@majestix' on 2021-06-10

   xtb is free software: you can redistribute it and/or modify it under
   the terms of the GNU Lesser General Public License as published by
   the Free Software Foundation, either version 3 of the License, or
   (at your option) any later version.
   
   xtb is distributed in the hope that it will be useful,
   but WITHOUT ANY WARRANTY; without even the implied warranty of
   MERCHANTABILITY or FITNESS FOR A PARTICULAR PURPOSE.  See the
   GNU Lesser General Public License for more details.
   
   Cite this work as:
   * C. Bannwarth, E. Caldeweyher, S. Ehlert, A. Hansen, P. Pracht,
     J. Seibert, S. Spicher, S. Grimme, WIREs Comput. Mol. Sci., 2020, 11,
     e01493. DOI: 10.1002/wcms.1493
   
   for GFN2-xTB:
   * C. Bannwarth, S. Ehlert and S. Grimme., J. Chem. Theory Comput., 2019,
     15, 1652-1671. DOI: 10.1021/acs.jctc.8b01176
   for GFN1-xTB:
   * S. Grimme, C. Bannwarth, P. Shushkov, J. Chem. Theory Comput., 2017,
     13, 1989-2009. DOI: 10.1021/acs.jctc.7b00118
   for GFN0-xTB:
   * P. Pracht, E. Caldeweyher, S. Ehlert, S. Grimme, ChemRxiv, 2019, preprint.
     DOI: 10.26434/chemrxiv.8326202.v1
   for GFN-FF:
   * S. Spicher and S. Grimme, Angew. Chem. Int. Ed., 2020, 59, 15665-15673.
     DOI: 10.1002/anie.202004239
   
   for DFT-D4:
   * E. Caldeweyher, C. Bannwarth and S. Grimme, J. Chem. Phys., 2017,
     147, 034112. DOI: 10.1063/1.4993215
   * E. Caldeweyher, S. Ehlert, A. Hansen, H. Neugebauer, S. Spicher,
     C. Bannwarth and S. Grimme, J. Chem. Phys., 2019, 150, 154122.
     DOI: 10.1063/1.5090222
   * E. Caldeweyher, J.-M. Mewes, S. Ehlert and S. Grimme, Phys. Chem. Chem. Phys.
     2020, 22, 8499-8512. DOI: 10.1039/D0CP00502A
   
   for sTDA-xTB:
   * S. Grimme and C. Bannwarth, J. Chem. Phys., 2016, 145, 054103.
     DOI: 10.1063/1.4959605
   
   in the mass-spec context:
   * V. Asgeirsson, C. Bauer and S. Grimme, Chem. Sci., 2017, 8, 4879.
     DOI: 10.1039/c7sc00601b
   * J. Koopman and S. Grimme, ACS Omega 2019, 4, 12, 15120-15133.
     DOI: 10.1021/acsomega.9b02011
   
   for metadynamics refer to:
   * S. Grimme, J. Chem. Theory Comput., 2019, 155, 2847-2862
     DOI: 10.1021/acs.jctc.9b00143
   
   for SPH calculations refer to:
   * S. Spicher and S. Grimme, J. Chem. Theory Comput., 2021, 17, 1701-1714
     DOI: 10.1021/acs.jctc.0c01306
   
   with help from (in alphabetical order)
   P. Atkinson, C. Bannwarth, F. Bohle, G. Brandenburg, E. Caldeweyher
   M. Checinski, S. Dohm, S. Ehlert, S. Ehrlich, I. Gerasimov, J. Koopman
   C. Lavigne, S. Lehtola, F. März, M. Müller, F. Musil, H. Neugebauer
   J. Pisarek, C. Plett, P. Pracht, J. Seibert, P. Shushkov, S. Spicher
   M. Stahn, M. Steiner, T. Strunk, J. Stückrath, T. Rose, and J. Unsleber
   
 * started run on 2021/11/15 at 09:36:15.927     

           -------------------------------------------------
          |                Calculation Setup                |
           -------------------------------------------------

          program call               : xtb 18_4-nitrophenol.xyz --gfn2 --chrg 0 --uhf 0 --alpb water --ohess -P 1
          coordinate file            : 18_4-nitrophenol.xyz
          omp threads                :                     1
          number of atoms            :                    15
          number of electrons        :                    52
          charge                     :                     0
          spin                       :                   0.0
          first test random number   :      0.59635156751139

   ID    Z sym.   atoms
    1    6 C      1-6
    2    1 H      7, 8, 10, 11, 15
    3    8 O      9, 13, 14
    4    7 N      12

           -------------------------------------------------
          |                 G F N 2 - x T B                 |
           -------------------------------------------------

        Reference                      10.1021/acs.jctc.8b01176
      * Hamiltonian:
        H0-scaling (s, p, d)           1.850000    2.230000    2.230000
        zeta-weighting                 0.500000
      * Dispersion:
        s8                             2.700000
        a1                             0.520000
        a2                             5.000000
        s9                             5.000000
      * Repulsion:
        kExp                           1.500000    1.000000
        rExp                           1.000000
      * Coulomb:
        alpha                          2.000000
        third order                    shell-resolved
        anisotropic                    true
        a3                             3.000000
        a5                             4.000000
        cn-shift                       1.200000
        cn-exp                         4.000000
        max-rad                        5.000000

      * Solvation model:               ALPB
        Solvent                        water
        Parameter file                 internal GFN2-xTB/ALPB
        Dielectric constant                8.0200E+01
        Reference state                gsolv [1 M gas/solution]
        Free energy shift                  1.0808E-03 Eh       6.7819E-01 kcal/mol
        Temperature                        2.9815E+02 K
        Density                            1.0000E+00 kg/L
        Solvent mass                       1.8000E+01 g/mol
        Interaction kernel             P16
        Born radius scaling (c1)           1.4744E+00
        Born radii integrator          GBOBC
        Born offset                        0.0000E+00 a0       0.0000E+00 AA
        H-bond correction              true
        Ion screening                  false
        Surface tension                    1.0000E-05 Eh       1.5569E+01 dyn/cm
        Grid points                               230 per atom

          ...................................................
          :                      SETUP                      :
          :.................................................:
          :  # basis functions                  45          :
          :  # atomic orbitals                  45          :
          :  # shells                           25          :
          :  # electrons                        52          :
          :  max. iterations                   250          :
          :  Hamiltonian                  GFN2-xTB          :
          :  restarted?                      false          :
          :  GBSA solvation                   true          :
          :  PC potential                    false          :
          :  electronic temp.          300.0000000     K    :
          :  accuracy                    1.0000000          :
          :  -> integral cutoff          0.2500000E+02      :
          :  -> integral neglect         0.1000000E-07      :
          :  -> SCF convergence          0.1000000E-05 Eh   :
          :  -> wf. convergence          0.1000000E-03 e    :
          :  Broyden damping             0.4000000          :
          ...................................................

 iter      E             dE          RMSdq      gap      omega  full diag
   1    -30.6567916 -0.306568E+02  0.641E+00    3.11       0.0  T
   2    -30.7641450 -0.107353E+00  0.313E+00    2.48       1.0  T
   3    -30.7662701 -0.212512E-02  0.147E+00    2.42       1.0  T
   4    -30.7659504  0.319706E-03  0.571E-01    2.39       1.0  T
   5    -30.7683884 -0.243796E-02  0.933E-02    2.38       1.0  T
   6    -30.7683931 -0.468369E-05  0.532E-02    2.38       1.0  T
   7    -30.7683998 -0.670376E-05  0.156E-02    2.38       1.7  T
   8    -30.7684010 -0.119259E-05  0.505E-03    2.38       5.1  T
   9    -30.7684010 -0.472207E-07  0.286E-03    2.38       9.0  T
  10    -30.7684010 -0.242539E-07  0.501E-04    2.38      51.5  T
  11    -30.7684010 -0.395712E-09  0.189E-04    2.38     136.6  T

   *** convergence criteria satisfied after 11 iterations ***

         #    Occupation            Energy/Eh            Energy/eV
      -------------------------------------------------------------
         1        2.0000           -0.7710680             -20.9818
       ...           ...                  ...                  ...
        20        2.0000           -0.4867139             -13.2442
        21        2.0000           -0.4775841             -12.9957
        22        2.0000           -0.4574892             -12.4489
        23        2.0000           -0.4464148             -12.1476
        24        2.0000           -0.4438860             -12.0788
        25        2.0000           -0.4338828             -11.8066
        26        2.0000           -0.4142419             -11.2721 (HOMO)
        27                         -0.3268148              -8.8931 (LUMO)
        28                         -0.2515994              -6.8464
        29                         -0.2294284              -6.2431
        30                         -0.1158376              -3.1521
        31                         -0.0260344              -0.7084
       ...                                ...                  ...
        45                          0.6199494              16.8697
      -------------------------------------------------------------
                  HL-Gap            0.0874271 Eh            2.3790 eV
             Fermi-level           -0.3705284 Eh          -10.0826 eV

 SCC (total)                   0 d,  0 h,  0 min,  0.013 sec
 SCC setup                      ...        0 min,  0.001 sec (  4.055%)
 Dispersion                     ...        0 min,  0.000 sec (  1.124%)
 classical contributions        ...        0 min,  0.000 sec (  0.194%)
 integral evaluation            ...        0 min,  0.002 sec ( 15.100%)
 iterations                     ...        0 min,  0.006 sec ( 48.964%)
 molecular gradient             ...        0 min,  0.004 sec ( 28.768%)
 printout                       ...        0 min,  0.000 sec (  1.544%)

         :::::::::::::::::::::::::::::::::::::::::::::::::::::
         ::                     SUMMARY                     ::
         :::::::::::::::::::::::::::::::::::::::::::::::::::::
         :: total energy             -30.431997158757 Eh    ::
         :: total w/o Gsasa/hb       -30.428320405814 Eh    ::
         :: gradient norm              0.034786755932 Eh/a0 ::
         :: HOMO-LUMO gap              2.379012482365 eV    ::
         ::.................................................::
         :: SCC energy               -30.768401027525 Eh    ::
         :: -> isotropic ES            0.094705159210 Eh    ::
         :: -> anisotropic ES          0.002899429554 Eh    ::
         :: -> anisotropic XC          0.004414535814 Eh    ::
         :: -> dispersion             -0.012165694306 Eh    ::
         :: -> Gsolv                  -0.023977918038 Eh    ::
         ::    -> Gelec               -0.020301165094 Eh    ::
         ::    -> Gsasa                0.004085012750 Eh    ::
         ::    -> Ghb                 -0.008842525392 Eh    ::
         ::    -> Gshift               0.001080759698 Eh    ::
         :: repulsion energy           0.336394359352 Eh    ::
         :: add. restraining           0.000000000000 Eh    ::
         :: total charge              -0.000000000000 e     ::
         :::::::::::::::::::::::::::::::::::::::::::::::::::::

      ----------------------------------------------------------- 
     |                   =====================                   |
     |                        A N C O P T                        |
     |                   =====================                   |
     |               Approximate Normal Coordinate               |
     |                Rational Function Optimizer                |
      ----------------------------------------------------------- 

          ...................................................
          :                      SETUP                      :
          :.................................................:
          :   optimization level            normal          :
          :   max. optcycles                   200          :
          :   ANC micro-cycles                  20          :
          :   degrees of freedom                39          :
          :.................................................:
          :   RF solver                   davidson          :
          :   write xtbopt.log                true          :
          :   linear?                        false          :
          :   energy convergence         0.5000000E-05 Eh   :
          :   grad. convergence          0.1000000E-02 Eh/α :
          :   maximium RF displ.         1.0000000          :
          :   Hlow (freq-cutoff)         0.1000000E-01      :
          :   Hmax (freq-cutoff)         5.0000000          :
          :   S6 in model hess.         20.0000000          :
          ...................................................

generating ANC from model Hessian ...
Using Lindh-Hessian (1995)
 Shifting diagonal of input Hessian by   5.890720737743156E-003
 Lowest  eigenvalues of input Hessian
    0.000000    0.000000    0.000000    0.000000    0.000000    0.000000
    0.010000    0.018061    0.020878    0.023050    0.025544    0.028812
    0.046234    0.048602    0.065299    0.075747    0.083466    0.094680
 Highest eigenvalues
    1.673552    1.880398    1.980337    2.008921    2.153433    2.489095
 

........................................................................
.............................. CYCLE    1 ..............................
........................................................................
   1    -30.7684010 -0.307684E+02  0.903E-05    2.38       0.0  T
   2    -30.7684010 -0.208331E-10  0.561E-05    2.38     460.6  T
   3    -30.7684010 -0.468603E-11  0.380E-05    2.38     678.7  T
     SCC iter.                  ...        0 min,  0.002 sec
     gradient                   ...        0 min,  0.004 sec
 * total energy  :   -30.4319972 Eh     change       -0.1813234E-09 Eh
   gradient norm :     0.0347890 Eh/α   predicted     0.0000000E+00 (-100.00%)
   displ. norm   :     0.0850587 α      lambda       -0.1691265E-02
   maximum displ.:     0.0571783 α      in ANC's #10, #20, #19, ...

........................................................................
.............................. CYCLE    2 ..............................
........................................................................
   1    -30.7798530 -0.307799E+02  0.128E-01    2.45       0.0  T
   2    -30.7799061 -0.531814E-04  0.646E-02    2.44       1.0  T
   3    -30.7799097 -0.358887E-05  0.408E-02    2.44       1.0  T
   4    -30.7799124 -0.264407E-05  0.131E-02    2.44       2.0  T
   5    -30.7799130 -0.625233E-06  0.332E-03    2.44       7.8  T
   6    -30.7799130 -0.103967E-07  0.199E-03    2.44      13.0  T
   7    -30.7799130 -0.141609E-07  0.481E-04    2.44      53.7  T
   8    -30.7799130 -0.502808E-09  0.240E-04    2.44     107.7  T
     SCC iter.                  ...        0 min,  0.003 sec
     gradient                   ...        0 min,  0.005 sec
 * total energy  :   -30.4331553 Eh     change       -0.1158167E-02 Eh
   gradient norm :     0.0188101 Eh/α   predicted    -0.8517514E-03 ( -26.46%)
   displ. norm   :     0.0486627 α      lambda       -0.5034218E-03
   maximum displ.:     0.0275108 α      in ANC's #10, #20, #12, ...

........................................................................
.............................. CYCLE    3 ..............................
........................................................................
   1    -30.7843461 -0.307843E+02  0.978E-02    2.46       0.0  T
   2    -30.7843773 -0.312034E-04  0.461E-02    2.46       1.0  T
   3    -30.7843818 -0.451665E-05  0.299E-02    2.46       1.0  T
   4    -30.7843840 -0.218644E-05  0.844E-03    2.47       3.1  T
   5    -30.7843841 -0.100471E-06  0.221E-03    2.47      11.7  T
   6    -30.7843841 -0.137797E-07  0.132E-03    2.47      19.5  T
   7    -30.7843841 -0.445006E-08  0.450E-04    2.47      57.4  T
   8    -30.7843841 -0.361268E-09  0.196E-04    2.47     131.8  T
     SCC iter.                  ...        0 min,  0.005 sec
     gradient                   ...        0 min,  0.005 sec
 * total energy  :   -30.4334365 Eh     change       -0.2811684E-03 Eh
   gradient norm :     0.0079666 Eh/α   predicted    -0.2523082E-03 ( -10.26%)
   displ. norm   :     0.0159220 α      lambda       -0.5674536E-04
   maximum displ.:     0.0121854 α      in ANC's #7, #38, #12, ...

........................................................................
.............................. CYCLE    4 ..............................
........................................................................
   1    -30.7837201 -0.307837E+02  0.327E-02    2.45       0.0  T
   2    -30.7837237 -0.357095E-05  0.156E-02    2.46       1.7  T
   3    -30.7837243 -0.562206E-06  0.929E-03    2.46       2.8  T
   4    -30.7837246 -0.295063E-06  0.244E-03    2.46      10.6  T
   5    -30.7837246 -0.762325E-08  0.674E-04    2.46      38.3  T
   6    -30.7837246 -0.150623E-08  0.415E-04    2.46      62.3  T
     SCC iter.                  ...        0 min,  0.004 sec
     gradient                   ...        0 min,  0.003 sec
 * total energy  :   -30.4334763 Eh     change       -0.3980636E-04 Eh
   gradient norm :     0.0039560 Eh/α   predicted    -0.2838022E-04 ( -28.70%)
   displ. norm   :     0.0210633 α      lambda       -0.3487377E-04
   maximum displ.:     0.0143728 α      in ANC's #7, #9, #10, ...

........................................................................
.............................. CYCLE    5 ..............................
........................................................................
   1    -30.7825657 -0.307826E+02  0.309E-02    2.43       0.0  T
   2    -30.7825692 -0.354052E-05  0.150E-02    2.44       1.7  T
   3    -30.7825696 -0.381175E-06  0.879E-03    2.44       2.9  T
   4    -30.7825698 -0.250468E-06  0.277E-03    2.45       9.3  T
   5    -30.7825698 -0.137333E-07  0.736E-04    2.45      35.1  T
   6    -30.7825698 -0.721517E-09  0.438E-04    2.45      59.0  T
     SCC iter.                  ...        0 min,  0.003 sec
     gradient                   ...        0 min,  0.003 sec
 * total energy  :   -30.4334844 Eh     change       -0.8051115E-05 Eh
   gradient norm :     0.0020692 Eh/α   predicted    -0.1744289E-04 ( 116.65%)
   displ. norm   :     0.0110319 α      lambda       -0.1716017E-04
   maximum displ.:     0.0065650 α      in ANC's #9, #14, #1, ...

........................................................................
.............................. CYCLE    6 ..............................
........................................................................
   1    -30.7824214 -0.307824E+02  0.955E-03    2.44       0.0  T
   2    -30.7824215 -0.627473E-07  0.548E-03    2.44       4.7  T
   3    -30.7824215  0.186952E-08  0.149E-03    2.44      17.3  T
   4    -30.7824215 -0.102924E-07  0.487E-04    2.44      53.0  T
   5    -30.7824215 -0.155375E-08  0.206E-04    2.44     125.3  T
     SCC iter.                  ...        0 min,  0.002 sec
     gradient                   ...        0 min,  0.003 sec
 * total energy  :   -30.4334900 Eh     change       -0.5639784E-05 Eh
   gradient norm :     0.0010597 Eh/α   predicted    -0.8579753E-05 (  52.13%)
   displ. norm   :     0.0062146 α      lambda       -0.2691600E-05
   maximum displ.:     0.0030438 α      in ANC's #7, #10, #9, ...

........................................................................
.............................. CYCLE    7 ..............................
........................................................................
   1    -30.7828645 -0.307829E+02  0.967E-03    2.45       0.0  T
   2    -30.7828648 -0.288491E-06  0.497E-03    2.45       5.2  T
   3    -30.7828648 -0.221152E-07  0.277E-03    2.45       9.3  T
   4    -30.7828648 -0.253765E-07  0.852E-04    2.45      30.3  T
   5    -30.7828648 -0.184196E-08  0.218E-04    2.45     118.6  T
     SCC iter.                  ...        0 min,  0.002 sec
     gradient                   ...        0 min,  0.003 sec
 * total energy  :   -30.4334910 Eh     change       -0.9694662E-06 Eh
   gradient norm :     0.0005856 Eh/α   predicted    -0.1346938E-05 (  38.94%)
   displ. norm   :     0.0031628 α      lambda       -0.5897809E-06
   maximum displ.:     0.0023983 α      in ANC's #7, #5, #10, ...

   *** GEOMETRY OPTIMIZATION CONVERGED AFTER 7 ITERATIONS ***

------------------------------------------------------------------------
 total energy gain   :        -0.0014938 Eh       -0.9374 kcal/mol
 total RMSD          :         0.0340707 a0        0.0180 Å
 total power (kW/mol):        -0.5602825 (step)  -60.9694 (real)
------------------------------------------------------------------------

 ANCopt (total)                0 d,  0 h,  0 min,  0.064 sec
 optimizer setup                ...        0 min,  0.000 sec (  0.312%)
 model hessian                  ...        0 min,  0.001 sec (  1.857%)
 ANC generation                 ...        0 min,  0.000 sec (  0.339%)
 coordinate transformation      ...        0 min,  0.000 sec (  0.085%)
 single point calculation       ...        0 min,  0.060 sec ( 93.515%)
 optimization log               ...        0 min,  0.001 sec (  2.008%)
 hessian update                 ...        0 min,  0.000 sec (  0.084%)
 rational function              ...        0 min,  0.001 sec (  1.113%)

================
 final structure:
================
15
 xtb: 6.4.1 (afa7bdf)
C         0.70134069957036    0.00121198799739    0.00013211524713
C         0.01496120517672    1.22013470608564   -0.00005446021328
C        -1.35658641613801    1.22599841777643   -0.00002390800762
C        -2.07018452036448    0.01768773109359    0.00014385232226
C        -1.37354246572350   -1.19799310455378    0.00019185751952
C         0.00034890457833   -1.20733589618591    0.00014939325768
H        -1.91446134502034   -2.13121593660725    0.00027747325055
H         0.55567819411554   -2.13213558553334    0.00025922857263
O        -3.40106649239421    0.08352225776392    0.00014369170550
H        -3.81660744586466   -0.79579409689345    0.00023158594508
H        -1.91180786535308    2.14920916665650   -0.00007498155909
N         2.10900720062452   -0.00880811266868    0.00045898242757
O         2.70876488043054    1.06163890409386   -0.00028118719787
O         2.69276462487960   -1.08837750430648   -0.00032948876129
H         0.58072084148270    2.13823006528156   -0.00007515450878
 
 Bond Distances (Angstroems)
 ---------------------------
C1-C2=1.3989         C1-C6=1.3971         C1-N12=1.4077        C2-C1=1.3989         C2-C3=1.3716         C2-H15=1.0784        
C3-C2=1.3716         C3-C4=1.4033         C3-H11=1.0773        C4-C3=1.4033         C4-C5=1.4011         C4-O9=1.3325         
C5-C4=1.4011         C5-C6=1.3739         C5-H7=1.0787         C6-C1=1.3971         C6-C5=1.3739         C6-H8=1.0787         
H7-C5=1.0787         H8-C6=1.0787         O9-C4=1.3325         O9-H10=0.9726        H10-O9=0.9726        H11-C3=1.0773        
N12-C1=1.4077        N12-O13=1.2270       N12-O14=1.2273       O13-N12=1.2270       O14-N12=1.2273       H15-C2=1.0784        
 C  H  Rav=1.0783 sigma=0.0006  Rmin=1.0773  Rmax=1.0787     4
 C  C  Rav=1.3910 sigma=0.0131  Rmin=1.3716  Rmax=1.4033     6
 N  C  Rav=1.4077 sigma=0.0000  Rmin=1.4077  Rmax=1.4077     1
 O  H  Rav=0.9726 sigma=0.0000  Rmin=0.9726  Rmax=0.9726     1
 O  C  Rav=1.3325 sigma=0.0000  Rmin=1.3325  Rmax=1.3325     1
 O  N  Rav=1.2272 sigma=0.0001  Rmin=1.2270  Rmax=1.2273     2
 
 selected bond angles (degree)
 --------------------
C6-C1-C2=120.50                N12-C1-C2=119.79               N12-C1-C6=119.71               C3-C2-C1=119.63                
H15-C2-C1=118.97               H15-C2-C3=121.40               C4-C3-C2=120.32                H11-C3-C2=121.27               
H11-C3-C4=118.41               C5-C4-C3=119.62                O9-C4-C3=117.73                O9-C4-C5=122.65                
C6-C5-C4=120.20                H7-C5-C4=120.09                H7-C5-C6=119.71                C5-C6-C1=119.73                
H8-C6-C1=118.90                H8-C6-C5=121.37                H10-O9-C4=112.46               
 
 selected dihedral angles (degree)
 ---------------------------------
C3-C2-C1-C6=  0.00            C3-C2-C1-N12=180.02           H15-C2-C1-C6=180.00           H15-C2-C1-N12=  0.00          
C4-C3-C2-C1=  0.00            C4-C3-C2-H15=180.01           H11-C3-C2-C1=179.99           H11-C3-C2-H15=  0.00          
C5-C4-C3-C2=  0.00            C5-C4-C3-H11=180.00           O9-C4-C3-C2=180.00            O9-C4-C3-H11=  0.00           
C6-C5-C4-C3=  0.00            C6-C5-C4-O9=180.00            H7-C5-C4-C3=180.00            H7-C5-C4-O9=  0.00            
C5-C6-C1-C2=  0.00            C5-C6-C1-N12=179.98           H8-C6-C1-C2=180.00            H8-C6-C1-N12=  0.00           
C1-C6-C5-C4=  0.00            C1-C6-C5-H7=180.00            H8-C6-C5-C4=180.00            H8-C6-C5-H7=  0.00            
H10-O9-C4-C3=180.00           H10-O9-C4-C5=  0.00           
           -------------------------------------------------
          |                Final Singlepoint                |
           -------------------------------------------------

          ...................................................
          :                      SETUP                      :
          :.................................................:
          :  # basis functions                  45          :
          :  # atomic orbitals                  45          :
          :  # shells                           25          :
          :  # electrons                        52          :
          :  max. iterations                   250          :
          :  Hamiltonian                  GFN2-xTB          :
          :  restarted?                      false          :
          :  GBSA solvation                   true          :
          :  PC potential                    false          :
          :  electronic temp.          300.0000000     K    :
          :  accuracy                    1.0000000          :
          :  -> integral cutoff          0.2500000E+02      :
          :  -> integral neglect         0.1000000E-07      :
          :  -> SCF convergence          0.1000000E-05 Eh   :
          :  -> wf. convergence          0.1000000E-03 e    :
          :  Broyden damping             0.4000000          :
          ...................................................

 iter      E             dE          RMSdq      gap      omega  full diag
   1    -30.7828648 -0.307829E+02  0.127E-04    2.45       0.0  T
   2    -30.7828648 -0.298570E-10  0.832E-05    2.45     310.2  T
   3    -30.7828648 -0.121929E-10  0.556E-05    2.45     464.4  T

   *** convergence criteria satisfied after 3 iterations ***

         #    Occupation            Energy/Eh            Energy/eV
      -------------------------------------------------------------
         1        2.0000           -0.7715508             -20.9950
       ...           ...                  ...                  ...
        20        2.0000           -0.4865973             -13.2410
        21        2.0000           -0.4756309             -12.9426
        22        2.0000           -0.4545099             -12.3678
        23        2.0000           -0.4454401             -12.1210
        24        2.0000           -0.4419691             -12.0266
        25        2.0000           -0.4348748             -11.8335
        26        2.0000           -0.4137478             -11.2586 (HOMO)
        27                         -0.3237972              -8.8110 (LUMO)
        28                         -0.2490972              -6.7783
        29                         -0.2250133              -6.1229
        30                         -0.1119311              -3.0458
        31                          0.0085151               0.2317
       ...                                ...                  ...
        45                          0.6410097              17.4428
      -------------------------------------------------------------
                  HL-Gap            0.0899505 Eh            2.4477 eV
             Fermi-level           -0.3687725 Eh          -10.0348 eV

 SCC (total)                   0 d,  0 h,  0 min,  0.006 sec
 SCC setup                      ...        0 min,  0.000 sec (  4.574%)
 Dispersion                     ...        0 min,  0.000 sec (  0.552%)
 classical contributions        ...        0 min,  0.000 sec (  0.192%)
 integral evaluation            ...        0 min,  0.001 sec ( 22.132%)
 iterations                     ...        0 min,  0.002 sec ( 26.262%)
 molecular gradient             ...        0 min,  0.003 sec ( 43.839%)
 printout                       ...        0 min,  0.000 sec (  2.127%)

         :::::::::::::::::::::::::::::::::::::::::::::::::::::
         ::                     SUMMARY                     ::
         :::::::::::::::::::::::::::::::::::::::::::::::::::::
         :: total energy             -30.433490961142 Eh    ::
         :: total w/o Gsasa/hb       -30.429403877655 Eh    ::
         :: gradient norm              0.000582902875 Eh/a0 ::
         :: HOMO-LUMO gap              2.447678522005 eV    ::
         ::.................................................::
         :: SCC energy               -30.782864801661 Eh    ::
         :: -> isotropic ES            0.097008025266 Eh    ::
         :: -> anisotropic ES          0.003326422411 Eh    ::
         :: -> anisotropic XC          0.002900991472 Eh    ::
         :: -> dispersion             -0.012238386327 Eh    ::
         :: -> Gsolv                  -0.025406246754 Eh    ::
         ::    -> Gelec               -0.021319163268 Eh    ::
         ::    -> Gsasa                0.004021869264 Eh    ::
         ::    -> Ghb                 -0.009189712449 Eh    ::
         ::    -> Gshift               0.001080759698 Eh    ::
         :: repulsion energy           0.349364205170 Eh    ::
         :: add. restraining           0.000000000000 Eh    ::
         :: total charge              -0.000000000000 e     ::
         :::::::::::::::::::::::::::::::::::::::::::::::::::::

           ------------------------------------------------- 
          |                Numerical Hessian                |
           ------------------------------------------------- 
step length          :   0.00500
SCC accuracy         :   0.30000
Hessian scale factor :   1.00000
frozen atoms in %    :   0.00000    0
RMS gradient         :   0.00058
estimated CPU  time      0.01 min
estimated wall time      0.01 min

writing file <hessian>.

 projected vibrational frequencies (cm⁻¹)
eigval :       -0.00    -0.00    -0.00     0.00     0.00     0.00
eigval :       73.47   108.48   211.27   286.71   352.37   374.41
eigval :      390.19   471.25   487.63   542.55   608.55   622.99
eigval :      657.74   731.70   787.25   833.06   857.07   874.54
eigval :      917.93   925.67  1000.04  1081.39  1122.59  1145.61
eigval :     1172.33  1252.36  1264.58  1313.81  1364.66  1437.59
eigval :     1462.75  1529.89  1561.12  1584.11  3099.48  3112.85
eigval :     3113.44  3126.18  3395.60
           -------------------------------------------------
          |                Property Printout                |
           -------------------------------------------------

    * Orbital Energies and Occupations

         #    Occupation            Energy/Eh            Energy/eV
      -------------------------------------------------------------
         1        2.0000           -0.7715503             -20.9950
       ...           ...                  ...                  ...
        14        2.0000           -0.5521437             -15.0246
        15        2.0000           -0.5492082             -14.9447
        16        2.0000           -0.5118810             -13.9290
        17        2.0000           -0.5048111             -13.7366
        18        2.0000           -0.4985859             -13.5672
        19        2.0000           -0.4917145             -13.3802
        20        2.0000           -0.4865974             -13.2410
        21        2.0000           -0.4756308             -12.9426
        22        2.0000           -0.4545099             -12.3678
        23        2.0000           -0.4454402             -12.1210
        24        2.0000           -0.4419692             -12.0266
        25        2.0000           -0.4348749             -11.8335
        26        2.0000           -0.4137478             -11.2586 (HOMO)
        27                         -0.3237973              -8.8110 (LUMO)
        28                         -0.2490973              -6.7783
        29                         -0.2250133              -6.1229
        30                         -0.1119312              -3.0458
        31                          0.0085149               0.2317
        32                          0.0689113               1.8752
        33                          0.1272712               3.4632
        34                          0.1338785               3.6430
        35                          0.1548692               4.2142
        36                          0.1730086               4.7078
        37                          0.2005456               5.4571
       ...                                ...                  ...
        45                          0.6410097              17.4428
      -------------------------------------------------------------
                  HL-Gap            0.0899504 Eh            2.4477 eV
             Fermi-level           -0.3687725 Eh          -10.0348 eV

     #   Z          covCN         q      C6AA      α(0)
     1   6 C        2.916    -0.000    28.040     8.683
     2   6 C        2.917    -0.020    28.495     8.754
     3   6 C        2.918    -0.053    29.307     8.878
     4   6 C        2.845     0.179    24.169     8.057
     5   6 C        2.916    -0.068    29.684     8.934
     6   6 C        2.917    -0.019    28.484     8.752
     7   1 H        0.926     0.088     1.899     2.155
     8   1 H        0.926     0.088     1.895     2.153
     9   8 O        1.660    -0.399    20.819     6.160
    10   1 H        0.804     0.402     0.480     1.089
    11   1 H        0.926     0.092     1.862     2.134
    12   7 N        2.763     0.552    13.456     5.448
    13   8 O        0.930    -0.465    22.991     6.430
    14   8 O        0.930    -0.465    22.994     6.431
    15   1 H        0.926     0.088     1.903     2.157

 Mol. C6AA /au·bohr⁶  :       3090.431627
 Mol. C8AA /au·bohr⁸  :      74146.715493
 Mol. α(0) /au        :         86.214624


Wiberg/Mayer (AO) data.
largest (>0.10) Wiberg bond orders for each atom

 ---------------------------------------------------------------------------
     #   Z sym  total        # sym  WBO       # sym  WBO       # sym  WBO
 ---------------------------------------------------------------------------
     1   6 C    3.946 --     6 C    1.331     2 C    1.323    12 N    1.032
     2   6 C    3.984 --     3 C    1.518     1 C    1.323    15 H    0.960
     3   6 C    3.985 --     2 C    1.518     4 C    1.311    11 H    0.962
     4   6 C    3.945 --     5 C    1.321     3 C    1.311     9 O    1.160
     5   6 C    3.984 --     6 C    1.506     4 C    1.321     7 H    0.960
     6   6 C    3.983 --     5 C    1.506     1 C    1.331     8 H    0.960
     7   1 H    0.992 --     5 C    0.960
     8   1 H    0.992 --     6 C    0.960
     9   8 O    2.146 --     4 C    1.160    10 H    0.816
    10   1 H    0.838 --     9 O    0.816
    11   1 H    0.991 --     3 C    0.962
    12   7 N    3.893 --    13 O    1.401    14 O    1.400     1 C    1.032
    13   8 O    1.856 --    12 N    1.401    14 O    0.305
    14   8 O    1.854 --    12 N    1.400    13 O    0.305
    15   1 H    0.992 --     2 C    0.960
 ---------------------------------------------------------------------------

Topologies differ in total number of bonds
Writing topology from bond orders to xtbtopo.mol

molecular dipole:
                 x           y           z       tot (Debye)
 q only:       -3.739      -0.601       0.001
   full:       -3.639      -0.751       0.001       9.444
molecular quadrupole (traceless):
                xx          xy          yy          xz          yz          zz
 q only:       -7.543       6.997       5.293       0.006      -0.001       2.250
  q+dip:       -8.243       8.657       6.698       0.007      -0.002       1.545
   full:       -9.439       8.727       5.138       0.008      -0.001       4.301

           -------------------------------------------------
          |                Geometry Summary                 |
           -------------------------------------------------

      molecular mass/u    :      139.1090371
   center of mass at/Å    :        0.0427041       0.0052071       0.0000434
  moments of inertia/u·Å² :        0.1268198E+03   0.6054006E+03   0.7322203E+03
rotational constants/cm⁻¹ :        0.1329259E+00   0.2784542E-01   0.2302262E-01

 * 15 selected distances

     #   Z          #   Z                                           value/Å
     1   6 C        2   6 C                                       1.3988886
     2   6 C        3   6 C                                       1.3715602
     3   6 C        4   6 C                                       1.4032951
     4   6 C        5   6 C                                       1.4011388
     1   6 C        6   6 C                                       1.3971319
     5   6 C        6   6 C                                       1.3739231
     5   6 C        7   1 H                                       1.0786557
     6   6 C        8   1 H                                       1.0787238
     4   6 C        9   8 O                                       1.3325093
     9   8 O       10   1 H                                       0.9725593 (min)
     3   6 C       11   1 H                                       1.0773063
     1   6 C       12   7 N                                       1.4077022 (max)
    12   7 N       13   8 O                                       1.2270153
    12   7 N       14   8 O                                       1.2272911
     2   6 C       15   1 H                                       1.0784169

 * 6 distinct bonds (by element types)

   Z      Z             #   av. dist./Å        max./Å        min./Å
   1 H    6 C           4     1.0782757     1.0787238     1.0773063
   6 C    6 C           6     1.3909896     1.4032951     1.3715602
   6 C    7 N           1     1.4077022     1.4077022     1.4077022
   1 H    8 O           1     0.9725593     0.9725593     0.9725593
   6 C    8 O           1     1.3325093     1.3325093     1.3325093
   7 N    8 O           2     1.2271532     1.2272911     1.2270153

           -------------------------------------------------
          |               Frequency Printout                |
           -------------------------------------------------
 projected vibrational frequencies (cm⁻¹)
eigval :       -0.00    -0.00    -0.00     0.00     0.00     0.00
eigval :       73.47   108.48   211.27   286.71   352.37   374.41
eigval :      390.19   471.25   487.63   542.55   608.55   622.99
eigval :      657.74   731.70   787.25   833.06   857.07   874.54
eigval :      917.93   925.67  1000.04  1081.39  1122.59  1145.61
eigval :     1172.33  1252.36  1264.58  1313.81  1364.66  1437.59
eigval :     1462.75  1529.89  1561.12  1584.11  3099.48  3112.85
eigval :     3113.44  3126.18  3395.60
 reduced masses (amu)
   1: 14.72   2: 12.93   3: 12.86   4: 13.53   5: 13.65   6: 11.93   7: 14.11   8: 13.40
   9: 13.91  10: 11.90  11: 14.36  12:  8.47  13: 11.73  14:  8.73  15:  3.38  16: 13.35
  17: 11.54  18: 13.18  19: 11.14  20: 12.66  21: 13.72  22:  5.70  23:  3.50  24: 12.55
  25:  3.27  26:  3.63  27:  8.41  28:  4.14  29:  2.28  30:  6.17  31:  5.98  32:  4.55
  33:  9.89  34: 12.80  35: 11.32  36: 10.76  37: 10.02  38: 14.43  39: 11.89  40: 11.62
  41:  1.81  42:  1.84  43:  1.85  44:  1.88  45:  1.86
 IR intensities (km·mol⁻¹)
   1:  4.08   2:  1.41   3:  0.59   4:  2.82   5:  3.25   6:  0.28   7:  0.61   8:  5.61
   9:  6.37  10:  2.16  11:  0.16  12: 17.38  13: 20.23  14: 11.61  15:197.82  16:  2.11
  17:  6.62  18: 58.22  19:  8.84  20: 71.17  21:  4.90  22: 35.47  23:  1.50  24: 55.21
  25:  0.15  26:  0.14  27:  1.02  28:723.62  29:176.62  30:112.84  31:280.29  32:589.36
  33:******  34:539.11  35: 13.34  36: 19.57  37: 69.41  38:575.72  39:139.50  40:295.93
  41:  9.90  42:  4.21  43:  1.63  44:  5.76  45:307.76
 Raman intensities (amu)
   1:  0.00   2:  0.00   3:  0.00   4:  0.00   5:  0.00   6:  0.00   7:  0.00   8:  0.00
   9:  0.00  10:  0.00  11:  0.00  12:  0.00  13:  0.00  14:  0.00  15:  0.00  16:  0.00
  17:  0.00  18:  0.00  19:  0.00  20:  0.00  21:  0.00  22:  0.00  23:  0.00  24:  0.00
  25:  0.00  26:  0.00  27:  0.00  28:  0.00  29:  0.00  30:  0.00  31:  0.00  32:  0.00
  33:  0.00  34:  0.00  35:  0.00  36:  0.00  37:  0.00  38:  0.00  39:  0.00  40:  0.00
  41:  0.00  42:  0.00  43:  0.00  44:  0.00  45:  0.00
 output can be read by thermo (or use thermo option).
 writing <g98.out> molden fake output.
 recommended (thermochemical) frequency scaling factor: 1.0
           -------------------------------------------------
          |             Thermodynamic Functions             |
           -------------------------------------------------

Molecule has the following symmetry elements: (sigma) 
It seems to be the Cs point group
cs  symmetry found (for desy threshold:  0.10E+00) used in thermo

          ...................................................
          :                      SETUP                      :
          :.................................................:
          :  # frequencies                          39      :
          :  # imaginary freq.                       0      :
          :  linear?                             false      :
          :  only rotor calc.                    false      :
          :  symmetry                               cs      :
          :  rotational number                       1      :
          :  scaling factor                  1.0000000      :
          :  rotor cutoff                   50.0000000 cm⁻¹ :
          :  imag. cutoff                  -20.0000000 cm⁻¹ :
          :.................................................:

    mode    ω/cm⁻¹     T·S(HO)/kcal·mol⁻¹    T·S(FR)/kcal·mol⁻¹   T·S(vib)
   ------------------------------------------------------------------------
       1     73.47    -1.20996 ( 82.34%)    -0.94241 ( 17.66%)    -1.16270
       2    108.48    -0.98268 ( 95.68%)    -0.82701 (  4.32%)    -0.97596
       3    211.27    -0.60605 ( 99.69%)    -0.62959 (  0.31%)    -0.60613
       4    286.71    -0.44523 ( 99.91%)    -0.53914 (  0.09%)    -0.44531
   ------------------------------------------------------------------------

   temp. (K)  partition function   enthalpy   heat capacity  entropy
                                   cal/mol     cal/K/mol   cal/K/mol   J/K/mol
 298.15  VIB   53.6                 3310.936     25.117     18.839
         ROT  0.573E+06              888.752      2.981     29.328
         INT  0.307E+08             4199.688     28.098     48.168
         TR   0.159E+28             1481.254      4.968     40.683
         TOT                        5680.9423    33.0660    88.8513   371.7537

       T/K    H(0)-H(T)+PV         H(T)/Eh          T*S/Eh         G(T)/Eh
   ------------------------------------------------------------------------
    298.15    0.905316E-02    0.112152E+00    0.422161E-01    0.699360E-01
   ------------------------------------------------------------------------

         :::::::::::::::::::::::::::::::::::::::::::::::::::::
         ::                  THERMODYNAMIC                  ::
         :::::::::::::::::::::::::::::::::::::::::::::::::::::
         :: total free energy         -30.363554920056 Eh   ::
         ::.................................................::
         :: total energy              -30.433490959872 Eh   ::
         :: zero point energy           0.103098983248 Eh   ::
         :: G(RRHO) w/o ZPVE           -0.033162943432 Eh   ::
         :: G(RRHO) contrib.            0.069936039816 Eh   ::
         :::::::::::::::::::::::::::::::::::::::::::::::::::::

optimized geometry written to: xtbopt.xyz


           -------------------------------------------------
          | TOTAL ENERGY              -30.433490959872 Eh   |
          | TOTAL ENTHALPY            -30.321338818823 Eh   |
          | TOTAL FREE ENERGY         -30.363554920056 Eh   |
          | GRADIENT NORM               0.000581828289 Eh/α |
          | HOMO-LUMO GAP               2.447676299716 eV   |
           -------------------------------------------------

------------------------------------------------------------------------
 * finished run on 2021/11/15 at 09:36:16.725     
------------------------------------------------------------------------
 total:
 * wall-time:     0 d,  0 h,  0 min,  0.798 sec
 *  cpu-time:     0 d,  0 h,  0 min,  0.750 sec
 * ratio c/w:     0.940 speedup
 SCF:
 * wall-time:     0 d,  0 h,  0 min,  0.013 sec
 *  cpu-time:     0 d,  0 h,  0 min,  0.016 sec
 * ratio c/w:     1.188 speedup
 ANC optimizer:
 * wall-time:     0 d,  0 h,  0 min,  0.072 sec
 *  cpu-time:     0 d,  0 h,  0 min,  0.078 sec
 * ratio c/w:     1.080 speedup
 analytical hessian:
 * wall-time:     0 d,  0 h,  0 min,  0.676 sec
 *  cpu-time:     0 d,  0 h,  0 min,  0.656 sec
 * ratio c/w:     0.971 speedup

