 Entering Gaussian System
 *********************************************
 Gaussian 98:
 frequency output generated by the xtb code
 *********************************************
                         Standard orientation:
 --------------------------------------------------------------------
  Center     Atomic     Atomic              Coordinates (Angstroms)
  Number     Number      Type              X           Y           Z
 --------------------------------------------------------------------
    1          6             0        0.701341    0.001208    0.000130
    2          6             0        0.014968    1.220135   -0.000057
    3          6             0       -1.356580    1.226006   -0.000021
    4          6             0       -2.070184    0.017699    0.000151
    5          6             0       -1.373549   -1.197986    0.000199
    6          6             0        0.000343   -1.207336    0.000151
    7          1             0       -1.914473   -2.131206    0.000288
    8          1             0        0.555667   -2.132138    0.000261
    9          8             0       -3.401066    0.083540    0.000155
   10          1             0       -3.816612   -0.795774    0.000246
   11          1             0       -1.911797    2.149219   -0.000072
   12          7             0        2.109007   -0.008819    0.000452
   13          8             0        2.708770    1.061625   -0.000292
   14          8             0        2.692759   -1.088392   -0.000337
   15          1             0        0.580732    2.138227   -0.000081
 --------------------------------------------------------------------
     1 basis functions        1 primitive gaussians
     1 alpha electrons        1 beta electrons
 
 Harmonic frequencies (cm**-1), IR intensities (km*mol⁻¹),
 Raman scattering activities (A**4/amu), Raman depolarization ratios,
 reduced masses (AMU), force constants (mDyne/A) and normal coordinates:
                      1                      2                      3
                        a                      a                      a 
 Frequencies --    73.4671               108.4795               211.2656
 Red. masses --    14.1081                13.4045                13.9057
 Frc consts  --     0.0000                 0.0000                 0.0000
 IR Inten    --     0.6090                 5.6119                 6.3704
 Raman Activ --     0.0000                 0.0000                 0.0000
 Depolar     --     0.0000                 0.0000                 0.0000
 Atom AN      X      Y      Z        X      Y      Z        X      Y      Z
   1   6    -0.00   0.00  -0.00    -0.00  -0.00  -0.29     0.00   0.32  -0.00
   2   6    -0.00   0.00   0.22    -0.00  -0.00  -0.35    -0.11   0.26  -0.00
   3   6    -0.00   0.00   0.25    -0.00  -0.00  -0.21    -0.14   0.06  -0.00
   4   6    -0.00  -0.00   0.00    -0.00   0.00   0.02    -0.00  -0.03  -0.00
   5   6     0.00   0.00  -0.25    -0.00  -0.00  -0.21     0.14   0.06   0.00
   6   6     0.00   0.00  -0.23    -0.00  -0.00  -0.35     0.11   0.26  -0.00
   7   1     0.00  -0.00  -0.14    -0.00  -0.00  -0.05     0.08  -0.00   0.00
   8   1     0.00   0.00  -0.12    -0.00  -0.00  -0.12     0.07   0.10  -0.00
   9   8    -0.00  -0.00   0.02    -0.00   0.00   0.57    -0.02  -0.37   0.00
  10   1     0.00  -0.00  -0.05    -0.00   0.00   0.16     0.06  -0.12   0.00
  11   1    -0.00   0.00   0.13     0.00  -0.00  -0.05    -0.07  -0.00  -0.00
  12   7    -0.00  -0.00   0.00    -0.00   0.00   0.07     0.00   0.01   0.00
  13   8     0.00  -0.00  -0.59    -0.00   0.00   0.32     0.44  -0.24   0.00
  14   8    -0.00  -0.00   0.60     0.00   0.00   0.30    -0.44  -0.23  -0.00
  15   1    -0.00   0.00   0.12    -0.00  -0.00  -0.12    -0.07   0.10  -0.00
                      4                      5                      6
                        a                      a                      a 
 Frequencies --   286.7113               352.3717               374.4146
 Red. masses --    11.8979                14.3638                 8.4745
 Frc consts  --     0.0000                 0.0000                 0.0000
 IR Inten    --     2.1608                 0.1555                17.3784
 Raman Activ --     0.0000                 0.0000                 0.0000
 Depolar     --     0.0000                 0.0000                 0.0000
 Atom AN      X      Y      Z        X      Y      Z        X      Y      Z
   1   6     0.00  -0.00  -0.53     0.15  -0.01   0.00     0.00   0.00  -0.00
   2   6    -0.00   0.00  -0.16    -0.10  -0.12   0.00    -0.00   0.00   0.42
   3   6    -0.00   0.00   0.38    -0.15  -0.09  -0.00    -0.00  -0.00  -0.40
   4   6    -0.00   0.00   0.25    -0.36   0.03  -0.00    -0.00  -0.00  -0.01
   5   6    -0.00   0.00   0.38    -0.16   0.13  -0.00     0.00   0.00   0.40
   6   6    -0.00   0.00  -0.16    -0.11   0.11   0.00     0.00  -0.00  -0.42
   7   1    -0.00   0.00   0.19    -0.01   0.02  -0.00     0.00   0.00   0.23
   8   1    -0.00   0.00  -0.06    -0.08   0.00   0.00     0.00  -0.00  -0.27
   9   8    -0.00  -0.00  -0.35    -0.47  -0.03   0.00    -0.00   0.00  -0.07
  10   1    -0.00  -0.00  -0.09    -0.10  -0.02   0.00    -0.00   0.00   0.27
  11   1    -0.00   0.00   0.19     0.00   0.00  -0.00    -0.00  -0.00  -0.22
  12   7     0.00  -0.00  -0.20     0.32  -0.01   0.00     0.00  -0.00  -0.00
  13   8     0.00  -0.00   0.18     0.42  -0.04  -0.00    -0.00   0.00  -0.02
  14   8     0.00  -0.00   0.18     0.45   0.04  -0.00     0.00   0.00   0.02
  15   1    -0.00   0.00  -0.06    -0.07  -0.01   0.00    -0.00   0.00   0.28
                      7                      8                      9
                        a                      a                      a 
 Frequencies --   390.1875               471.2532               487.6271
 Red. masses --    11.7315                 8.7308                 3.3799
 Frc consts  --     0.0000                 0.0000                 0.0000
 IR Inten    --    20.2312                11.6123               197.8220
 Raman Activ --     0.0000                 0.0000                 0.0000
 Depolar     --     0.0000                 0.0000                 0.0000
 Atom AN      X      Y      Z        X      Y      Z        X      Y      Z
   1   6    -0.01  -0.12   0.00     0.00   0.00   0.42    -0.00   0.00  -0.11
   2   6     0.10  -0.04   0.00     0.00  -0.00  -0.25    -0.00   0.00   0.16
   3   6     0.07   0.35  -0.00     0.00  -0.00  -0.00    -0.00   0.00  -0.17
   4   6     0.02   0.36  -0.00    -0.00   0.00   0.54     0.00  -0.00  -0.10
   5   6    -0.03   0.35   0.00     0.00   0.00   0.07    -0.00  -0.00   0.13
   6   6    -0.08  -0.04  -0.00     0.00  -0.00  -0.30    -0.00   0.00  -0.02
   7   1    -0.08   0.14   0.00     0.00   0.00  -0.16    -0.00   0.00   0.13
   8   1    -0.07  -0.04  -0.00    -0.00  -0.00  -0.31     0.00   0.00   0.02
   9   8    -0.03  -0.56   0.00    -0.00  -0.00  -0.14     0.00   0.00   0.29
  10   1     0.20  -0.24   0.00    -0.00  -0.00  -0.25    -0.00  -0.00  -0.89
  11   1     0.09   0.15  -0.00     0.00  -0.00  -0.21    -0.00  -0.00  -0.06
  12   7    -0.02  -0.13  -0.00     0.00   0.00   0.18    -0.00  -0.00  -0.06
  13   8    -0.23  -0.03   0.00     0.00   0.00  -0.07     0.00  -0.00   0.02
  14   8     0.17  -0.04  -0.00    -0.00   0.00  -0.07     0.00   0.00   0.03
  15   1     0.09  -0.04   0.00     0.00  -0.00  -0.29     0.00   0.00   0.10
                     10                     11                     12
                        a                      a                      a 
 Frequencies --   542.5481               608.5512               622.9859
 Red. masses --    13.3550                11.5423                13.1835
 Frc consts  --     0.0000                 0.0000                 0.0000
 IR Inten    --     2.1059                 6.6174                58.2243
 Raman Activ --     0.0000                 0.0000                 0.0000
 Depolar     --     0.0000                 0.0000                 0.0000
 Atom AN      X      Y      Z        X      Y      Z        X      Y      Z
   1   6    -0.00   0.26   0.00     0.03   0.06  -0.00    -0.30   0.00  -0.00
   2   6    -0.03   0.35  -0.00     0.43   0.19  -0.00    -0.19   0.16   0.00
   3   6    -0.04  -0.05  -0.00     0.42  -0.25   0.00    -0.18   0.21  -0.00
   4   6     0.00  -0.12   0.00    -0.02  -0.07  -0.00     0.21  -0.00   0.00
   5   6     0.04  -0.06   0.00    -0.38  -0.20   0.00    -0.27  -0.24  -0.00
   6   6     0.02   0.35   0.00    -0.38   0.23  -0.00    -0.28  -0.12   0.00
   7   1     0.08  -0.05  -0.00    -0.08  -0.07   0.00    -0.16  -0.02  -0.00
   8   1     0.07   0.14  -0.00    -0.09   0.07  -0.00    -0.04  -0.01  -0.00
   9   8     0.01   0.03  -0.00    -0.05  -0.18   0.00     0.37  -0.03  -0.00
  10   1    -0.04   0.03   0.00     0.05  -0.07   0.00     0.10  -0.01   0.00
  11   1    -0.08  -0.06  -0.00     0.12  -0.07   0.00    -0.14   0.01  -0.00
  12   7    -0.00  -0.36   0.00     0.01   0.09   0.00    -0.09   0.01  -0.00
  13   8    -0.44  -0.18   0.00     0.05   0.10  -0.00     0.33  -0.21  -0.00
  14   8     0.45  -0.18  -0.00    -0.11   0.06   0.00     0.31   0.23  -0.00
  15   1    -0.08   0.14  -0.00     0.10   0.07   0.00    -0.01   0.02  -0.00
                     13                     14                     15
                        a                      a                      a 
 Frequencies --   657.7378               731.7045               787.2512
 Red. masses --    11.1360                12.6585                13.7201
 Frc consts  --     0.0000                 0.0000                 0.0000
 IR Inten    --     8.8449                71.1706                 4.8998
 Raman Activ --     0.0000                 0.0000                 0.0000
 Depolar     --     0.0000                 0.0000                 0.0000
 Atom AN      X      Y      Z        X      Y      Z        X      Y      Z
   1   6    -0.00   0.00   0.19     0.00  -0.00  -0.46    -0.20   0.00  -0.00
   2   6    -0.00   0.00  -0.31    -0.00   0.00   0.07     0.22   0.18  -0.00
   3   6    -0.00   0.00   0.26     0.00  -0.00  -0.16     0.19  -0.02   0.00
   4   6     0.00  -0.00  -0.49    -0.00   0.00   0.36    -0.10   0.00   0.00
   5   6    -0.00  -0.00   0.26     0.00   0.00  -0.17     0.20   0.01   0.00
   6   6    -0.00  -0.00  -0.31     0.00  -0.00   0.07     0.22  -0.19   0.00
   7   1    -0.00   0.00   0.27     0.00   0.00   0.06     0.08  -0.01  -0.00
   8   1    -0.00   0.00   0.00    -0.00   0.00   0.16     0.13  -0.01   0.00
   9   8     0.00   0.00   0.08     0.00  -0.00  -0.07    -0.36   0.01   0.00
  10   1     0.00   0.00  -0.02    -0.00   0.00  -0.02    -0.09   0.00   0.00
  11   1    -0.00   0.00   0.25     0.00   0.00   0.04     0.08   0.01  -0.00
  12   7     0.00  -0.00   0.46     0.00  -0.00   0.68    -0.41   0.00   0.00
  13   8     0.00  -0.00  -0.15    -0.00   0.00  -0.20     0.09  -0.42  -0.00
  14   8     0.00   0.00  -0.15    -0.00  -0.00  -0.20     0.10   0.41  -0.00
  15   1    -0.00   0.00   0.01    -0.00   0.00   0.15     0.13   0.01   0.00
                     16                     17                     18
                        a                      a                      a 
 Frequencies --   833.0618               857.0686               874.5427
 Red. masses --     5.6971                 3.4965                12.5530
 Frc consts  --     0.0000                 0.0000                 0.0000
 IR Inten    --    35.4739                 1.4965                55.2093
 Raman Activ --     0.0000                 0.0000                 0.0000
 Depolar     --     0.0000                 0.0000                 0.0000
 Atom AN      X      Y      Z        X      Y      Z        X      Y      Z
   1   6    -0.00   0.00   0.30    -0.00  -0.00  -0.07     0.10   0.00  -0.00
   2   6    -0.00  -0.00  -0.11    -0.00   0.00   0.28    -0.12  -0.39   0.00
   3   6    -0.00  -0.00  -0.17     0.00   0.00   0.28     0.02  -0.36   0.00
   4   6     0.00   0.00   0.29    -0.00  -0.00  -0.09    -0.02  -0.00  -0.00
   5   6    -0.00   0.00  -0.32    -0.00  -0.00  -0.16     0.03   0.36   0.00
   6   6    -0.00   0.00  -0.20     0.00  -0.00  -0.17    -0.11   0.39  -0.00
   7   1     0.00   0.00   0.59     0.00   0.00   0.35     0.07   0.07  -0.00
   8   1    -0.00   0.00   0.34     0.00   0.00   0.30    -0.12   0.06   0.00
   9   8     0.00   0.00  -0.07    -0.00  -0.00   0.01     0.34   0.00   0.00
  10   1     0.00  -0.00  -0.01    -0.00   0.00   0.04     0.09  -0.00   0.00
  11   1     0.00   0.00   0.30    -0.00  -0.00  -0.56     0.07  -0.07  -0.00
  12   7     0.00   0.00  -0.21    -0.00   0.00   0.05    -0.26   0.00   0.00
  13   8    -0.00  -0.00   0.05    -0.00  -0.00  -0.02    -0.01  -0.28  -0.00
  14   8     0.00   0.00   0.05     0.00  -0.00  -0.01     0.00   0.28  -0.00
  15   1    -0.00  -0.00   0.17     0.00  -0.00  -0.50    -0.12  -0.06  -0.00
                     19                     20                     21
                        a                      a                      a 
 Frequencies --   917.9344               925.6679              1000.0394
 Red. masses --     3.2675                 3.6255                 8.4116
 Frc consts  --     0.0000                 0.0000                 0.0000
 IR Inten    --     0.1520                 0.1399                 1.0221
 Raman Activ --     0.0000                 0.0000                 0.0000
 Depolar     --     0.0000                 0.0000                 0.0000
 Atom AN      X      Y      Z        X      Y      Z        X      Y      Z
   1   6    -0.00  -0.00   0.05     0.00  -0.00  -0.02     0.13   0.00  -0.00
   2   6    -0.00   0.00  -0.06    -0.00   0.00   0.34    -0.03  -0.36   0.00
   3   6    -0.00  -0.00   0.01    -0.00  -0.00  -0.30    -0.03   0.42  -0.00
   4   6     0.00  -0.00   0.06     0.00  -0.00  -0.01     0.04  -0.01   0.00
   5   6     0.00   0.00   0.25     0.00  -0.00   0.12    -0.04  -0.42   0.00
   6   6     0.00  -0.00  -0.36     0.00   0.00  -0.11    -0.03   0.36  -0.00
   7   1    -0.00  -0.00  -0.48    -0.00  -0.00  -0.14     0.19  -0.23  -0.00
   8   1    -0.00   0.00   0.71     0.00   0.00   0.11     0.17   0.20   0.00
   9   8     0.00  -0.00  -0.01    -0.00  -0.00  -0.01    -0.09  -0.01   0.00
  10   1    -0.00   0.00   0.00    -0.00   0.00   0.01    -0.07   0.02  -0.00
  11   1    -0.00  -0.00  -0.11     0.00   0.00   0.57     0.21   0.25  -0.00
  12   7     0.00   0.00  -0.05    -0.00   0.00   0.02    -0.06   0.00   0.00
  13   8     0.00   0.00   0.01    -0.00  -0.00  -0.00    -0.03  -0.09  -0.00
  14   8     0.00  -0.00   0.01    -0.00   0.00  -0.00    -0.03   0.09  -0.00
  15   1    -0.00   0.00   0.20     0.00  -0.00  -0.64     0.17  -0.20   0.00
                     22                     23                     24
                        a                      a                      a 
 Frequencies --  1081.3930              1122.5948              1145.6059
 Red. masses --     4.1379                 2.2793                 6.1696
 Frc consts  --     0.0000                 0.0000                 0.0000
 IR Inten    --   723.6192               176.6232               112.8360
 Raman Activ --     0.0000                 0.0000                 0.0000
 Depolar     --     0.0000                 0.0000                 0.0000
 Atom AN      X      Y      Z        X      Y      Z        X      Y      Z
   1   6    -0.08   0.08  -0.00     0.04   0.12   0.00    -0.53   0.02  -0.00
   2   6    -0.05  -0.11   0.00    -0.10  -0.04  -0.00    -0.02  -0.13   0.00
   3   6    -0.00  -0.17   0.00     0.09  -0.06   0.00     0.04  -0.17   0.00
   4   6     0.06   0.21  -0.00    -0.07   0.07  -0.00     0.02  -0.02  -0.00
   5   6    -0.03  -0.16   0.00    -0.08  -0.09  -0.00     0.02   0.18  -0.00
   6   6     0.06  -0.05  -0.00     0.07  -0.14  -0.00     0.01   0.11   0.00
   7   1    -0.01  -0.05  -0.00    -0.34   0.16   0.00    -0.17   0.15   0.00
   8   1     0.24   0.12   0.00     0.29   0.12  -0.00     0.44   0.30  -0.00
   9   8    -0.20   0.25  -0.00     0.10  -0.08   0.00     0.03  -0.04   0.00
  10   1     0.74  -0.32  -0.00    -0.22   0.09  -0.00    -0.11   0.05  -0.00
  11   1     0.03  -0.03  -0.00     0.51   0.27  -0.00    -0.01  -0.06   0.00
  12   7     0.06  -0.00   0.00    -0.05   0.01  -0.00     0.10   0.00   0.00
  13   8    -0.02  -0.03  -0.00     0.01   0.00   0.00     0.07   0.15  -0.00
  14   8    -0.00   0.00  -0.00     0.02  -0.03  -0.00     0.07  -0.15  -0.00
  15   1    -0.17   0.06  -0.00    -0.45   0.24  -0.00     0.36  -0.26  -0.00
                     25                     26                     27
                        a                      a                      a 
 Frequencies --  1172.3281              1252.3637              1264.5835
 Red. masses --     5.9779                 4.5503                 9.8883
 Frc consts  --     0.0000                 0.0000                 0.0000
 IR Inten    --   280.2852               589.3620              1714.4009
 Raman Activ --     0.0000                 0.0000                 0.0000
 Depolar     --     0.0000                 0.0000                 0.0000
 Atom AN      X      Y      Z        X      Y      Z        X      Y      Z
   1   6     0.37   0.01  -0.00     0.11  -0.23   0.00     0.40   0.09   0.00
   2   6     0.09  -0.10   0.00     0.14  -0.05  -0.00     0.01   0.16  -0.00
   3   6    -0.06   0.07  -0.00     0.08   0.10  -0.00    -0.16  -0.04  -0.00
   4   6     0.22   0.02  -0.00    -0.16   0.21  -0.00    -0.50  -0.04   0.00
   5   6    -0.12  -0.07  -0.00    -0.11   0.09  -0.00    -0.10  -0.06  -0.00
   6   6     0.10   0.06  -0.00    -0.13  -0.11  -0.00     0.10  -0.12  -0.00
   7   1    -0.52   0.26  -0.00     0.34  -0.19   0.00    -0.17   0.05   0.00
   8   1     0.18   0.10   0.00     0.43   0.24  -0.00     0.12   0.02   0.00
   9   8    -0.15  -0.03   0.00     0.12  -0.07   0.00     0.26   0.05  -0.00
  10   1    -0.10   0.03  -0.00    -0.12   0.05   0.00     0.19  -0.06   0.00
  11   1    -0.41  -0.21   0.00    -0.36  -0.20   0.00     0.04   0.04   0.00
  12   7     0.10   0.00   0.00    -0.19   0.02  -0.00    -0.36  -0.00  -0.00
  13   8    -0.13  -0.21   0.00     0.08   0.09  -0.00     0.07   0.11  -0.00
  14   8    -0.13   0.21   0.00     0.04  -0.08  -0.00     0.09  -0.12  -0.00
  15   1     0.02  -0.02   0.00    -0.29   0.19  -0.00     0.37  -0.17   0.00
                     28                     29                     30
                        a                      a                      a 
 Frequencies --  1313.8142              1364.6649              1437.5917
 Red. masses --    12.7953                11.3186                10.7618
 Frc consts  --     0.0000                 0.0000                 0.0000
 IR Inten    --   539.1055                13.3436                19.5727
 Raman Activ --     0.0000                 0.0000                 0.0000
 Depolar     --     0.0000                 0.0000                 0.0000
 Atom AN      X      Y      Z        X      Y      Z        X      Y      Z
   1   6     0.02   0.09   0.00     0.00  -0.48   0.00     0.02  -0.27   0.00
   2   6    -0.03  -0.18   0.00    -0.21   0.16  -0.00     0.40   0.07  -0.00
   3   6     0.13   0.02  -0.00     0.25   0.24  -0.00    -0.44   0.03   0.00
   4   6     0.28   0.06  -0.00     0.02  -0.53   0.00     0.00  -0.24   0.00
   5   6     0.20  -0.12  -0.00    -0.22   0.22   0.00     0.44   0.03  -0.00
   6   6    -0.05   0.14  -0.00     0.23   0.21  -0.00    -0.41   0.07   0.00
   7   1    -0.18   0.11   0.00    -0.07   0.06  -0.00    -0.10   0.15   0.00
   8   1    -0.18  -0.06   0.00     0.06   0.05  -0.00     0.08   0.14   0.00
   9   8    -0.23   0.01   0.00    -0.07   0.08  -0.00    -0.03   0.08  -0.00
  10   1    -0.03  -0.01   0.00     0.18  -0.08   0.00     0.10  -0.03   0.00
  11   1    -0.11  -0.09   0.00     0.04   0.05   0.00     0.09   0.15  -0.00
  12   7    -0.57   0.00   0.00    -0.09   0.02   0.00    -0.01  -0.07  -0.00
  13   8     0.22   0.30  -0.00     0.06   0.06  -0.00     0.05   0.06  -0.00
  14   8     0.23  -0.32  -0.00    -0.00  -0.03   0.00    -0.04   0.05   0.00
  15   1    -0.10   0.00  -0.00    -0.09   0.06   0.00    -0.06   0.13  -0.00
                     31                     32                     33
                        a                      a                      a 
 Frequencies --  1462.7500              1529.8857              1561.1172
 Red. masses --    10.0193                14.4295                11.8878
 Frc consts  --     0.0000                 0.0000                 0.0000
 IR Inten    --    69.4070               575.7237               139.4972
 Raman Activ --     0.0000                 0.0000                 0.0000
 Depolar     --     0.0000                 0.0000                 0.0000
 Atom AN      X      Y      Z        X      Y      Z        X      Y      Z
   1   6     0.35  -0.02   0.00    -0.00  -0.11   0.00     0.00   0.55  -0.00
   2   6    -0.26   0.23  -0.00    -0.10   0.08  -0.00     0.19  -0.30   0.00
   3   6    -0.12  -0.23   0.00     0.02  -0.08   0.00     0.04   0.23  -0.00
   4   6     0.52   0.02  -0.00    -0.01   0.17  -0.00     0.04  -0.46   0.00
   5   6    -0.14   0.22  -0.00    -0.00  -0.08   0.00    -0.16   0.27  -0.00
   6   6    -0.24  -0.20   0.00     0.10   0.08   0.00    -0.10  -0.29   0.00
   7   1     0.21  -0.07  -0.00    -0.02  -0.01   0.00     0.09  -0.01   0.00
   8   1     0.20   0.10   0.00    -0.01  -0.01   0.00     0.07  -0.02   0.00
   9   8    -0.20  -0.01   0.00     0.01  -0.02  -0.00    -0.03   0.05  -0.00
  10   1    -0.07   0.01   0.00    -0.04   0.01   0.00     0.08  -0.03   0.00
  11   1     0.20   0.07  -0.00     0.01  -0.02  -0.00    -0.05   0.02  -0.00
  12   7    -0.10   0.00   0.00    -0.00  -0.77  -0.00    -0.03  -0.24   0.00
  13   8     0.00   0.01  -0.00     0.19   0.35  -0.00     0.03   0.10  -0.00
  14   8     0.00  -0.00  -0.00    -0.19   0.35   0.00    -0.02   0.08   0.00
  15   1     0.20  -0.10   0.00     0.01  -0.01  -0.00    -0.07  -0.00  -0.00
                     34                     35                     36
                        a                      a                      a 
 Frequencies --  1584.1115              3099.4782              3112.8491
 Red. masses --    11.6184                 1.8113                 1.8364
 Frc consts  --     0.0000                 0.0000                 0.0000
 IR Inten    --   295.9278                 9.9020                 4.2141
 Raman Activ --     0.0000                 0.0000                 0.0000
 Depolar     --     0.0000                 0.0000                 0.0000
 Atom AN      X      Y      Z        X      Y      Z        X      Y      Z
   1   6    -0.12  -0.06  -0.00    -0.00   0.00  -0.00    -0.00  -0.00   0.00
   2   6     0.43  -0.07   0.00     0.00   0.00   0.00    -0.10  -0.17   0.00
   3   6    -0.49  -0.14   0.00     0.00  -0.00   0.00    -0.03   0.06  -0.00
   4   6     0.21   0.06  -0.00    -0.01  -0.00   0.00    -0.00   0.00  -0.00
   5   6    -0.44   0.07   0.00    -0.13  -0.22   0.00    -0.04  -0.06   0.00
   6   6     0.45   0.13  -0.00    -0.05   0.08  -0.00     0.09  -0.14   0.00
   7   1     0.06  -0.08   0.00     0.45   0.78  -0.00     0.12   0.21  -0.00
   8   1    -0.06  -0.07  -0.00     0.18  -0.30   0.00    -0.29   0.49  -0.00
   9   8     0.00  -0.02  -0.00     0.00   0.00  -0.00     0.00  -0.00   0.00
  10   1    -0.04   0.02   0.00     0.00  -0.01   0.00     0.00   0.00  -0.00
  11   1     0.07   0.09  -0.00    -0.01   0.02  -0.00     0.13  -0.22   0.00
  12   7    -0.13   0.02   0.00     0.00   0.00  -0.00     0.00  -0.00   0.00
  13   8     0.04   0.06  -0.00    -0.00  -0.00   0.00    -0.00   0.00  -0.00
  14   8     0.04  -0.07  -0.00    -0.00  -0.00  -0.00     0.00   0.00   0.00
  15   1    -0.04   0.08  -0.00    -0.01  -0.02   0.00     0.36   0.59  -0.00
                     37                     38                     39
                        a                      a                      a 
 Frequencies --  3113.4366              3126.1817              3395.6014
 Red. masses --     1.8481                 1.8778                 1.8610
 Frc consts  --     0.0000                 0.0000                 0.0000
 IR Inten    --     1.6316                 5.7559               307.7614
 Raman Activ --     0.0000                 0.0000                 0.0000
 Depolar     --     0.0000                 0.0000                 0.0000
 Atom AN      X      Y      Z        X      Y      Z        X      Y      Z
   1   6     0.01   0.00   0.00     0.00  -0.00   0.00    -0.00  -0.00   0.00
   2   6     0.08   0.14  -0.00     0.06   0.09  -0.00     0.00  -0.00  -0.00
   3   6     0.03  -0.05   0.00    -0.14   0.22  -0.00    -0.00  -0.00  -0.00
   4   6    -0.00  -0.00  -0.00    -0.01   0.00   0.00     0.01   0.00  -0.00
   5   6    -0.04  -0.07   0.00    -0.00  -0.01   0.00    -0.00   0.00  -0.00
   6   6     0.10  -0.17   0.00     0.00  -0.00   0.00     0.00   0.00  -0.00
   7   1     0.12   0.22  -0.00     0.01   0.02  -0.00    -0.00  -0.00   0.00
   8   1    -0.35   0.60  -0.00    -0.00   0.01  -0.00    -0.00   0.00  -0.00
   9   8     0.00   0.00   0.00     0.00  -0.00   0.00     0.10   0.22  -0.00
  10   1    -0.00  -0.00   0.00     0.00   0.01  -0.00    -0.42  -0.87   0.00
  11   1    -0.12   0.20  -0.00     0.46  -0.77   0.00     0.00  -0.01   0.00
  12   7     0.00  -0.00  -0.00     0.00   0.00  -0.00     0.00   0.00  -0.00
  13   8     0.00  -0.00   0.00     0.00  -0.00   0.00    -0.00  -0.00   0.00
  14   8     0.00   0.00   0.00    -0.00   0.00   0.00    -0.00   0.00   0.00
  15   1    -0.30  -0.49   0.00    -0.18  -0.29   0.00     0.00   0.00   0.00
