15
 energy: -30.433490961142 gnorm: 0.000582902875 xtb: 6.4.1 (afa7bdf)
C         0.70134070636359    0.00120831601664    0.00012966499094
C         0.01496759358927    1.22013462763532   -0.00005664197453
C        -1.35657999688937    1.22600552078590   -0.00002131239861
C        -2.07018442720871    0.01769857080519    0.00015104775854
C        -1.37354873769653   -1.19798591234914    0.00019874297962
C         0.00034258351119   -1.20733589773365    0.00015149923843
H        -1.91447250302143   -2.13120591199435    0.00028787565484
H         0.55566703118658   -2.13213849457265    0.00026101016842
O        -3.40106605450428    0.08354006595594    0.00015541789333
H        -3.81661161174400   -0.79577411276728    0.00024629734104
H        -1.91179661235718    2.14921917669548   -0.00007205916833
N         2.10900715606580   -0.00881915460336    0.00045163597671
O         2.70877043811721    1.06162472052718   -0.00029249548047
O         2.69275892495149   -1.08839160414757   -0.00033698870593
H         0.58073203694227    2.13822702447061   -0.00008091352240
