      -----------------------------------------------------------      
     |                   =====================                   |     
     |                           x T B                           |     
     |                   =====================                   |     
     |                         S. Grimme                         |     
     |          Mulliken Center for Theoretical Chemistry        |     
     |                    University of Bonn                     |     
      -----------------------------------------------------------      

   * xtb version 6.4.1 (afa7bdf) compiled by 'ehlert@majestix' on 2021-06-10

   xtb is free software: you can redistribute it and/or modify it under
   the terms of the GNU Lesser General Public License as published by
   the Free Software Foundation, either version 3 of the License, or
   (at your option) any later version.
   
   xtb is distributed in the hope that it will be useful,
   but WITHOUT ANY WARRANTY; without even the implied warranty of
   MERCHANTABILITY or FITNESS FOR A PARTICULAR PURPOSE.  See the
   GNU Lesser General Public License for more details.
   
   Cite this work as:
   * C. Bannwarth, E. Caldeweyher, S. Ehlert, A. Hansen, P. Pracht,
     J. Seibert, S. Spicher, S. Grimme, WIREs Comput. Mol. Sci., 2020, 11,
     e01493. DOI: 10.1002/wcms.1493
   
   for GFN2-xTB:
   * C. Bannwarth, S. Ehlert and S. Grimme., J. Chem. Theory Comput., 2019,
     15, 1652-1671. DOI: 10.1021/acs.jctc.8b01176
   for GFN1-xTB:
   * S. Grimme, C. Bannwarth, P. Shushkov, J. Chem. Theory Comput., 2017,
     13, 1989-2009. DOI: 10.1021/acs.jctc.7b00118
   for GFN0-xTB:
   * P. Pracht, E. Caldeweyher, S. Ehlert, S. Grimme, ChemRxiv, 2019, preprint.
     DOI: 10.26434/chemrxiv.8326202.v1
   for GFN-FF:
   * S. Spicher and S. Grimme, Angew. Chem. Int. Ed., 2020, 59, 15665-15673.
     DOI: 10.1002/anie.202004239
   
   for DFT-D4:
   * E. Caldeweyher, C. Bannwarth and S. Grimme, J. Chem. Phys., 2017,
     147, 034112. DOI: 10.1063/1.4993215
   * E. Caldeweyher, S. Ehlert, A. Hansen, H. Neugebauer, S. Spicher,
     C. Bannwarth and S. Grimme, J. Chem. Phys., 2019, 150, 154122.
     DOI: 10.1063/1.5090222
   * E. Caldeweyher, J.-M. Mewes, S. Ehlert and S. Grimme, Phys. Chem. Chem. Phys.
     2020, 22, 8499-8512. DOI: 10.1039/D0CP00502A
   
   for sTDA-xTB:
   * S. Grimme and C. Bannwarth, J. Chem. Phys., 2016, 145, 054103.
     DOI: 10.1063/1.4959605
   
   in the mass-spec context:
   * V. Asgeirsson, C. Bauer and S. Grimme, Chem. Sci., 2017, 8, 4879.
     DOI: 10.1039/c7sc00601b
   * J. Koopman and S. Grimme, ACS Omega 2019, 4, 12, 15120-15133.
     DOI: 10.1021/acsomega.9b02011
   
   for metadynamics refer to:
   * S. Grimme, J. Chem. Theory Comput., 2019, 155, 2847-2862
     DOI: 10.1021/acs.jctc.9b00143
   
   for SPH calculations refer to:
   * S. Spicher and S. Grimme, J. Chem. Theory Comput., 2021, 17, 1701-1714
     DOI: 10.1021/acs.jctc.0c01306
   
   with help from (in alphabetical order)
   P. Atkinson, C. Bannwarth, F. Bohle, G. Brandenburg, E. Caldeweyher
   M. Checinski, S. Dohm, S. Ehlert, S. Ehrlich, I. Gerasimov, J. Koopman
   C. Lavigne, S. Lehtola, F. März, M. Müller, F. Musil, H. Neugebauer
   J. Pisarek, C. Plett, P. Pracht, J. Seibert, P. Shushkov, S. Spicher
   M. Stahn, M. Steiner, T. Strunk, J. Stückrath, T. Rose, and J. Unsleber
   
 * started run on 2021/11/15 at 09:36:12.100     

           -------------------------------------------------
          |                Calculation Setup                |
           -------------------------------------------------

          program call               : xtb 10_bisphenol-A.xyz --gfn2 --chrg 0 --uhf 0 --alpb water --ohess -P 1
          coordinate file            : 10_bisphenol-A.xyz
          omp threads                :                     1
          number of atoms            :                    33
          number of electrons        :                    88
          charge                     :                     0
          spin                       :                   0.0
          first test random number   :      0.38259980991528

   ID    Z sym.   atoms
    1    6 C      1-6, 11-15, 17, 19, 26, 30
    2    1 H      7-10, 16, 18, 20, 21, 23, 25, 27-29, 31-33
    3    8 O      22, 24

           -------------------------------------------------
          |                 G F N 2 - x T B                 |
           -------------------------------------------------

        Reference                      10.1021/acs.jctc.8b01176
      * Hamiltonian:
        H0-scaling (s, p, d)           1.850000    2.230000    2.230000
        zeta-weighting                 0.500000
      * Dispersion:
        s8                             2.700000
        a1                             0.520000
        a2                             5.000000
        s9                             5.000000
      * Repulsion:
        kExp                           1.500000    1.000000
        rExp                           1.000000
      * Coulomb:
        alpha                          2.000000
        third order                    shell-resolved
        anisotropic                    true
        a3                             3.000000
        a5                             4.000000
        cn-shift                       1.200000
        cn-exp                         4.000000
        max-rad                        5.000000

      * Solvation model:               ALPB
        Solvent                        water
        Parameter file                 internal GFN2-xTB/ALPB
        Dielectric constant                8.0200E+01
        Reference state                gsolv [1 M gas/solution]
        Free energy shift                  1.0808E-03 Eh       6.7819E-01 kcal/mol
        Temperature                        2.9815E+02 K
        Density                            1.0000E+00 kg/L
        Solvent mass                       1.8000E+01 g/mol
        Interaction kernel             P16
        Born radius scaling (c1)           1.4744E+00
        Born radii integrator          GBOBC
        Born offset                        0.0000E+00 a0       0.0000E+00 AA
        H-bond correction              true
        Ion screening                  false
        Surface tension                    1.0000E-05 Eh       1.5569E+01 dyn/cm
        Grid points                               230 per atom

          ...................................................
          :                      SETUP                      :
          :.................................................:
          :  # basis functions                  84          :
          :  # atomic orbitals                  84          :
          :  # shells                           50          :
          :  # electrons                        88          :
          :  max. iterations                   250          :
          :  Hamiltonian                  GFN2-xTB          :
          :  restarted?                      false          :
          :  GBSA solvation                   true          :
          :  PC potential                    false          :
          :  electronic temp.          300.0000000     K    :
          :  accuracy                    1.0000000          :
          :  -> integral cutoff          0.2500000E+02      :
          :  -> integral neglect         0.1000000E-07      :
          :  -> SCF convergence          0.1000000E-05 Eh   :
          :  -> wf. convergence          0.1000000E-03 e    :
          :  Broyden damping             0.4000000          :
          ...................................................

 iter      E             dE          RMSdq      gap      omega  full diag
   1    -49.1238501 -0.491239E+02  0.367E+00    4.07       0.0  T
   2    -49.1434631 -0.196130E-01  0.212E+00    4.11       1.0  T
   3    -49.1377706  0.569247E-02  0.764E-01    4.00       1.0  T
   4    -49.1470444 -0.927375E-02  0.195E-01    4.04       1.0  T
   5    -49.1473541 -0.309727E-03  0.749E-02    4.07       1.0  T
   6    -49.1473921 -0.379880E-04  0.385E-02    4.06       1.0  T
   7    -49.1473999 -0.778110E-05  0.124E-02    4.07       1.4  T
   8    -49.1474009 -0.999680E-06  0.517E-03    4.06       3.4  T
   9    -49.1474011 -0.230444E-06  0.321E-03    4.07       5.4  T
  10    -49.1474012 -0.789391E-07  0.672E-04    4.07      25.9  T
  11    -49.1474012 -0.181115E-08  0.347E-04    4.07      50.2  T

   *** convergence criteria satisfied after 11 iterations ***

         #    Occupation            Energy/Eh            Energy/eV
      -------------------------------------------------------------
         1        2.0000           -0.7040295             -19.1576
       ...           ...                  ...                  ...
        38        2.0000           -0.4203003             -11.4370
        39        2.0000           -0.4149319             -11.2909
        40        2.0000           -0.4082853             -11.1100
        41        2.0000           -0.3990668             -10.8592
        42        2.0000           -0.3985863             -10.8461
        43        2.0000           -0.3776107             -10.2753
        44        2.0000           -0.3713042             -10.1037 (HOMO)
        45                         -0.2219091              -6.0385 (LUMO)
        46                         -0.2207239              -6.0062
        47                         -0.2133607              -5.8058
        48                         -0.2084672              -5.6727
        49                         -0.0915874              -2.4922
       ...                                ...                  ...
        84                          0.6426691              17.4879
      -------------------------------------------------------------
                  HL-Gap            0.1493951 Eh            4.0652 eV
             Fermi-level           -0.2966067 Eh           -8.0711 eV

 SCC (total)                   0 d,  0 h,  0 min,  0.033 sec
 SCC setup                      ...        0 min,  0.001 sec (  2.612%)
 Dispersion                     ...        0 min,  0.000 sec (  1.132%)
 classical contributions        ...        0 min,  0.000 sec (  0.157%)
 integral evaluation            ...        0 min,  0.004 sec ( 13.464%)
 iterations                     ...        0 min,  0.014 sec ( 42.854%)
 molecular gradient             ...        0 min,  0.013 sec ( 38.572%)
 printout                       ...        0 min,  0.000 sec (  1.138%)

         :::::::::::::::::::::::::::::::::::::::::::::::::::::
         ::                     SUMMARY                     ::
         :::::::::::::::::::::::::::::::::::::::::::::::::::::
         :: total energy             -48.419092755057 Eh    ::
         :: total w/o Gsasa/hb       -48.409235612977 Eh    ::
         :: gradient norm              0.027380012608 Eh/a0 ::
         :: HOMO-LUMO gap              4.065248635886 eV    ::
         ::.................................................::
         :: SCC energy               -49.147401179916 Eh    ::
         :: -> isotropic ES            0.059819823022 Eh    ::
         :: -> anisotropic ES          0.008123206674 Eh    ::
         :: -> anisotropic XC          0.021115591430 Eh    ::
         :: -> dispersion             -0.034163630121 Eh    ::
         :: -> Gsolv                  -0.018011601988 Eh    ::
         ::    -> Gelec               -0.008154459908 Eh    ::
         ::    -> Gsasa                0.000722493912 Eh    ::
         ::    -> Ghb                 -0.011660395690 Eh    ::
         ::    -> Gshift               0.001080759698 Eh    ::
         :: repulsion energy           0.727939271361 Eh    ::
         :: add. restraining           0.000000000000 Eh    ::
         :: total charge              -0.000000000000 e     ::
         :::::::::::::::::::::::::::::::::::::::::::::::::::::

      ----------------------------------------------------------- 
     |                   =====================                   |
     |                        A N C O P T                        |
     |                   =====================                   |
     |               Approximate Normal Coordinate               |
     |                Rational Function Optimizer                |
      ----------------------------------------------------------- 

          ...................................................
          :                      SETUP                      :
          :.................................................:
          :   optimization level            normal          :
          :   max. optcycles                   200          :
          :   ANC micro-cycles                  20          :
          :   degrees of freedom                93          :
          :.................................................:
          :   RF solver                   davidson          :
          :   write xtbopt.log                true          :
          :   linear?                        false          :
          :   energy convergence         0.5000000E-05 Eh   :
          :   grad. convergence          0.1000000E-02 Eh/α :
          :   maximium RF displ.         1.0000000          :
          :   Hlow (freq-cutoff)         0.1000000E-01      :
          :   Hmax (freq-cutoff)         5.0000000          :
          :   S6 in model hess.         20.0000000          :
          ...................................................

generating ANC from model Hessian ...
Using Lindh-Hessian (1995)
 Shifting diagonal of input Hessian by   9.459841786942440E-003
 Lowest  eigenvalues of input Hessian
    0.000000    0.000000    0.000000    0.000000    0.000000    0.000000
    0.010000    0.010479    0.010555    0.011456    0.012995    0.014370
    0.015552    0.017284    0.018346    0.018710    0.019023    0.023525
 Highest eigenvalues
    1.849340    1.849807    1.964539    1.965313    2.048356    2.051072
 

........................................................................
.............................. CYCLE    1 ..............................
........................................................................
   1    -49.1474012 -0.491474E+02  0.102E-04    4.07       0.0  T
   2    -49.1474012 -0.444942E-10  0.641E-05    4.07     271.4  T
   3    -49.1474012 -0.670752E-11  0.339E-05    4.07     512.8  T
     SCC iter.                  ...        0 min,  0.005 sec
     gradient                   ...        0 min,  0.010 sec
 * total energy  :   -48.4190928 Eh     change       -0.1393495E-08 Eh
   gradient norm :     0.0273793 Eh/α   predicted     0.0000000E+00 (-100.00%)
   displ. norm   :     0.2258085 α      lambda       -0.3396942E-02
   maximum displ.:     0.1067466 α      in ANC's #20, #5, #16, ...

........................................................................
.............................. CYCLE    2 ..............................
........................................................................
   1    -49.1785777 -0.491786E+02  0.966E-02    4.11       0.0  T
   2    -49.1785874 -0.970378E-05  0.571E-02    4.11       1.0  T
   3    -49.1785822  0.520766E-05  0.200E-02    4.11       1.0  T
   4    -49.1785899 -0.767071E-05  0.248E-03    4.11       7.0  T
   5    -49.1785900 -0.603050E-07  0.137E-03    4.11      12.7  T
   6    -49.1785900 -0.888387E-08  0.715E-04    4.11      24.3  T
   7    -49.1785900 -0.450794E-08  0.181E-04    4.11      96.2  T
     SCC iter.                  ...        0 min,  0.009 sec
     gradient                   ...        0 min,  0.010 sec
 * total energy  :   -48.4213391 Eh     change       -0.2246389E-02 Eh
   gradient norm :     0.0105025 Eh/α   predicted    -0.1785114E-02 ( -20.53%)
   displ. norm   :     0.1886194 α      lambda       -0.7414516E-03
   maximum displ.:     0.1197451 α      in ANC's #5, #11, #9, ...

........................................................................
.............................. CYCLE    3 ..............................
........................................................................
   1    -49.1906819 -0.491907E+02  0.608E-02    4.11       0.0  T
   2    -49.1906863 -0.441296E-05  0.361E-02    4.12       1.0  T
   3    -49.1906842  0.208303E-05  0.140E-02    4.11       1.2  T
   4    -49.1906876 -0.339674E-05  0.161E-03    4.11      10.8  T
   5    -49.1906876 -0.219526E-07  0.917E-04    4.11      19.0  T
   6    -49.1906876 -0.532165E-08  0.459E-04    4.11      37.9  T
     SCC iter.                  ...        0 min,  0.008 sec
     gradient                   ...        0 min,  0.010 sec
 * total energy  :   -48.4217829 Eh     change       -0.4437093E-03 Eh
   gradient norm :     0.0039219 Eh/α   predicted    -0.3839829E-03 ( -13.46%)
   displ. norm   :     0.1248808 α      lambda       -0.1498745E-03
   maximum displ.:     0.0937639 α      in ANC's #5, #1, #9, ...

........................................................................
.............................. CYCLE    4 ..............................
........................................................................
   1    -49.1914022 -0.491914E+02  0.338E-02    4.10       0.0  T
   2    -49.1914030 -0.842966E-06  0.199E-02    4.11       1.0  T
   3    -49.1914024  0.580688E-06  0.665E-03    4.10       2.6  T
   4    -49.1914033 -0.832466E-06  0.871E-04    4.11      20.0  T
   5    -49.1914033 -0.591854E-08  0.516E-04    4.11      33.7  T
     SCC iter.                  ...        0 min,  0.007 sec
     gradient                   ...        0 min,  0.010 sec
 * total energy  :   -48.4218962 Eh     change       -0.1133530E-03 Eh
   gradient norm :     0.0020674 Eh/α   predicted    -0.7610887E-04 ( -32.86%)
   displ. norm   :     0.1560376 α      lambda       -0.1238363E-03
   maximum displ.:     0.1018695 α      in ANC's #5, #1, #3, ...

........................................................................
.............................. CYCLE    5 ..............................
........................................................................
   1    -49.1896766 -0.491897E+02  0.493E-02    4.09       0.0  T
   2    -49.1896770 -0.494400E-06  0.290E-02    4.09       1.0  T
   3    -49.1896765  0.531661E-06  0.534E-03    4.09       3.3  T
   4    -49.1896772 -0.696647E-06  0.873E-04    4.09      19.9  T
   5    -49.1896772 -0.448887E-08  0.521E-04    4.09      33.4  T
     SCC iter.                  ...        0 min,  0.009 sec
     gradient                   ...        0 min,  0.010 sec
 * total energy  :   -48.4219832 Eh     change       -0.8694723E-04 Eh
   gradient norm :     0.0023034 Eh/α   predicted    -0.6342675E-04 ( -27.05%)
   displ. norm   :     0.1344009 α      lambda       -0.6016085E-04
   maximum displ.:     0.0778196 α      in ANC's #3, #5, #1, ...

........................................................................
.............................. CYCLE    6 ..............................
........................................................................
   1    -49.1885195 -0.491885E+02  0.493E-02    4.09       0.0  T
   2    -49.1885196 -0.102561E-06  0.290E-02    4.09       1.0  T
   3    -49.1885197 -0.184714E-07  0.121E-03    4.09      14.4  T
   4    -49.1885197 -0.267711E-07  0.573E-04    4.09      30.4  T
   5    -49.1885197 -0.976129E-09  0.268E-04    4.09      64.9  T
     SCC iter.                  ...        0 min,  0.009 sec
     gradient                   ...        0 min,  0.010 sec
 * total energy  :   -48.4220274 Eh     change       -0.4425736E-04 Eh
   gradient norm :     0.0024217 Eh/α   predicted    -0.3062404E-04 ( -30.80%)
   displ. norm   :     0.1034890 α      lambda       -0.4011221E-04
   maximum displ.:     0.0716724 α      in ANC's #3, #1, #2, ...

........................................................................
.............................. CYCLE    7 ..............................
........................................................................
   1    -49.1882478 -0.491882E+02  0.429E-02    4.09       0.0  T
   2    -49.1882480 -0.165891E-06  0.252E-02    4.09       1.0  T
   3    -49.1882479  0.138657E-06  0.271E-03    4.09       6.4  T
   4    -49.1882481 -0.195083E-06  0.533E-04    4.09      32.7  T
   5    -49.1882481 -0.122274E-08  0.306E-04    4.09      57.0  T
     SCC iter.                  ...        0 min,  0.007 sec
     gradient                   ...        0 min,  0.010 sec
 * total energy  :   -48.4220619 Eh     change       -0.3445585E-04 Eh
   gradient norm :     0.0015897 Eh/α   predicted    -0.2027648E-04 ( -41.15%)
   displ. norm   :     0.1694996 α      lambda       -0.4708199E-04
   maximum displ.:     0.1221574 α      in ANC's #3, #1, #2, ...

........................................................................
.............................. CYCLE    8 ..............................
........................................................................
   1    -49.1886368 -0.491886E+02  0.722E-02    4.09       0.0  T
   2    -49.1886376 -0.766414E-06  0.424E-02    4.09       1.0  T
   3    -49.1886367  0.937090E-06  0.666E-03    4.09       2.6  T
   4    -49.1886379 -0.119741E-05  0.105E-03    4.09      16.6  T
   5    -49.1886379 -0.762905E-08  0.597E-04    4.09      29.1  T
   6    -49.1886379 -0.263285E-08  0.256E-04    4.09      67.9  T
     SCC iter.                  ...        0 min,  0.013 sec
     gradient                   ...        0 min,  0.012 sec
 * total energy  :   -48.4221189 Eh     change       -0.5707890E-04 Eh
   gradient norm :     0.0015136 Eh/α   predicted    -0.2384753E-04 ( -58.22%)
   displ. norm   :     0.1779883 α      lambda       -0.4081057E-04
   maximum displ.:     0.1275873 α      in ANC's #3, #1, #2, ...

........................................................................
.............................. CYCLE    9 ..............................
........................................................................
   1    -49.1890203 -0.491890E+02  0.732E-02    4.09       0.0  T
   2    -49.1890206 -0.270513E-06  0.430E-02    4.09       1.0  T
   3    -49.1890204  0.200612E-06  0.329E-03    4.09       5.3  T
   4    -49.1890207 -0.329990E-06  0.861E-04    4.09      20.2  T
   5    -49.1890207 -0.697874E-09  0.445E-04    4.09      39.1  T
     SCC iter.                  ...        0 min,  0.007 sec
     gradient                   ...        0 min,  0.010 sec
 * total energy  :   -48.4221711 Eh     change       -0.5211711E-04 Eh
   gradient norm :     0.0019726 Eh/α   predicted    -0.2069339E-04 ( -60.29%)
   displ. norm   :     0.1942334 α      lambda       -0.3672612E-04
   maximum displ.:     0.1378732 α      in ANC's #3, #1, #2, ...

........................................................................
.............................. CYCLE   10 ..............................
........................................................................
   1    -49.1892189 -0.491892E+02  0.793E-02    4.09       0.0  T
   2    -49.1892191 -0.226021E-06  0.465E-02    4.09       1.0  T
   3    -49.1892191 -0.384735E-08  0.234E-03    4.09       7.4  T
   4    -49.1892193 -0.107556E-06  0.846E-04    4.09      20.6  T
   5    -49.1892193 -0.439464E-09  0.352E-04    4.09      49.5  T
     SCC iter.                  ...        0 min,  0.009 sec
     gradient                   ...        0 min,  0.017 sec
 * total energy  :   -48.4222162 Eh     change       -0.4517229E-04 Eh
   gradient norm :     0.0013208 Eh/α   predicted    -0.1867174E-04 ( -58.67%)
   displ. norm   :     0.1757298 α      lambda       -0.2380559E-04
   maximum displ.:     0.1266270 α      in ANC's #3, #1, #2, ...

........................................................................
.............................. CYCLE   11 ..............................
........................................................................
   1    -49.1891907 -0.491892E+02  0.727E-02    4.08       0.0  T
   2    -49.1891910 -0.266332E-06  0.426E-02    4.08       1.0  T
   3    -49.1891908  0.220034E-06  0.367E-03    4.08       4.7  T
   4    -49.1891911 -0.338939E-06  0.781E-04    4.08      22.3  T
   5    -49.1891911 -0.128624E-08  0.424E-04    4.08      41.0  T
     SCC iter.                  ...        0 min,  0.009 sec
     gradient                   ...        0 min,  0.012 sec
 * total energy  :   -48.4222441 Eh     change       -0.2785447E-04 Eh
   gradient norm :     0.0006923 Eh/α   predicted    -0.1206877E-04 ( -56.67%)
   displ. norm   :     0.1183633 α      lambda       -0.1082041E-04
   maximum displ.:     0.0889269 α      in ANC's #3, #2, #1, ...

........................................................................
.............................. CYCLE   12 ..............................
........................................................................
   1    -49.1893540 -0.491894E+02  0.500E-02    4.08       0.0  T
   2    -49.1893541 -0.119128E-06  0.294E-02    4.08       1.0  T
   3    -49.1893540  0.106669E-06  0.246E-03    4.08       7.1  T
   4    -49.1893542 -0.161837E-06  0.518E-04    4.08      33.6  T
   5    -49.1893542 -0.480760E-09  0.284E-04    4.08      61.3  T
     SCC iter.                  ...        0 min,  0.007 sec
     gradient                   ...        0 min,  0.010 sec
 * total energy  :   -48.4222566 Eh     change       -0.1252463E-04 Eh
   gradient norm :     0.0005651 Eh/α   predicted    -0.5444338E-05 ( -56.53%)
   displ. norm   :     0.0635481 α      lambda       -0.4566743E-05
   maximum displ.:     0.0518282 α      in ANC's #3, #2, #1, ...

........................................................................
.............................. CYCLE   13 ..............................
........................................................................
   1    -49.1894121 -0.491894E+02  0.282E-02    4.08       0.0  T
   2    -49.1894121 -0.270182E-07  0.165E-02    4.08       1.1  T
   3    -49.1894121  0.460092E-08  0.862E-04    4.08      20.2  T
   4    -49.1894121 -0.177068E-07  0.283E-04    4.08      61.6  T
     SCC iter.                  ...        0 min,  0.006 sec
     gradient                   ...        0 min,  0.010 sec
 * total energy  :   -48.4222621 Eh     change       -0.5513678E-05 Eh
   gradient norm :     0.0004623 Eh/α   predicted    -0.2288527E-05 ( -58.49%)
   displ. norm   :     0.0635481 α      lambda        0.0000000E+00
   maximum displ.:     0.0518282 α      in ANC's #3, #2, #1, ...

........................................................................
.............................. CYCLE   14 ..............................
........................................................................
   1    -49.1894025 -0.491894E+02  0.282E-02    4.08       0.0  T
   2    -49.1894026 -0.264216E-07  0.165E-02    4.08       1.1  T
   3    -49.1894026  0.705642E-08  0.921E-04    4.08      18.9  T
   4    -49.1894026 -0.203592E-07  0.282E-04    4.08      61.7  T
     SCC iter.                  ...        0 min,  0.007 sec
     gradient                   ...        0 min,  0.012 sec
 * total energy  :   -48.4222650 Eh     change       -0.2868209E-05 Eh
   gradient norm :     0.0007434 Eh/α   predicted    -0.8266808E-09 ( -99.97%)
   displ. norm   :     0.0247711 α      lambda       -0.2620480E-05
   maximum displ.:     0.0216568 α      in ANC's #3, #2, #1, ...

   *** GEOMETRY OPTIMIZATION CONVERGED AFTER 14 ITERATIONS ***

------------------------------------------------------------------------
 total energy gain   :        -0.0031722 Eh       -1.9906 kcal/mol
 total RMSD          :         0.2642851 a0        0.1399 Å
 total power (kW/mol):        -0.5949086 (step)  -22.3583 (real)
------------------------------------------------------------------------

 ANCopt (total)                0 d,  0 h,  0 min,  0.373 sec
 optimizer setup                ...        0 min,  0.000 sec (  0.068%)
 model hessian                  ...        0 min,  0.016 sec (  4.193%)
 ANC generation                 ...        0 min,  0.001 sec (  0.270%)
 coordinate transformation      ...        0 min,  0.000 sec (  0.055%)
 single point calculation       ...        0 min,  0.350 sec ( 94.028%)
 optimization log               ...        0 min,  0.003 sec (  0.900%)
 hessian update                 ...        0 min,  0.000 sec (  0.050%)
 rational function              ...        0 min,  0.001 sec (  0.231%)

================
 final structure:
================
33
 xtb: 6.4.1 (afa7bdf)
C         1.23561355746978    0.61400199073230   -0.01299854525472
C         1.33158766707584   -0.41948655368872    0.91362157023575
C         2.43404189839097   -1.24984835655545    0.95840520914908
C         3.48113465260462   -1.06230129077339    0.06401676769176
C         3.39971688066641   -0.03146363018998   -0.86410430927114
C         2.29110604475046    0.79387077856659   -0.89683891922780
H         2.47929533570439   -2.04615995443957    1.68765177165976
H         2.26457939593086    1.58244156954730   -1.63102630101222
H         0.52068400938313   -0.58732746705420    1.60762200932274
H         4.21623714859354    0.10792526180702   -1.55564526694250
C        -0.00072691557337    1.49921003788838    0.01513130662941
C        -1.22793331999483    0.60096640153393    0.02352197735305
C        -2.30081473266239    0.77518896561904    0.88435432624919
C        -1.29851237437600   -0.43566220269976   -0.90479477871249
C        -3.40512921849256   -0.05921046414022    0.83104774285570
H        -2.29368561449284    1.56519117776258    1.61740340437422
C        -2.39213026865224   -1.27240222472137   -0.96915568000175
H        -0.47386456004539   -0.59694611586507   -1.58382946926257
C        -3.45999107192474   -1.09088737525791   -0.09499229502188
H        -4.22656833491324    0.09695908335844    1.51616880577153
H        -2.44063631746822   -2.07451380566531   -1.68874413418607
O         4.59153455772856   -1.85223336482483    0.05782632912085
H         4.52864892455561   -2.52956634289455    0.74760323831004
O        -4.52185048589585   -1.94005867292204   -0.18735964406288
H        -5.19568937294771   -1.71154461554864    0.47046899700996
C        -0.11541724280496    2.41021249264937   -1.21542975707067
H         0.68567217278772    3.14498787569850   -1.22887060763016
H        -0.08684240379970    1.83040198362664   -2.13435684372146
H        -1.06460166056627    2.94105562827328   -1.17892119650409
C         0.10305770619361    2.38743376366157    1.26356403605320
H         1.05184946654789    2.91980324430303    1.24387959579240
H        -0.69836336617853    3.12163711059484    1.28408381213217
H         0.06742884240581    1.79139407161803    2.17169084817135
 
 Bond Distances (Angstroems)
 ---------------------------
C1-C2=1.3914         C1-C6=1.3884         C1-C11=1.5208        C2-C1=1.3914         C2-C3=1.3809         C2-H9=1.0804         
C3-C2=1.3809         C3-C4=1.3898         C3-H7=1.0807         C4-C3=1.3898         C4-C5=1.3895         C4-O22=1.3627        
C5-C4=1.3895         C5-C6=1.3825         C5-H10=1.0791        C6-C1=1.3884         C6-C5=1.3825         C6-H8=1.0778         
H7-C3=1.0807         H8-C6=1.0778         H9-C2=1.0804         H10-C5=1.0791        C11-C1=1.5208        C11-C12=1.5208       
C11-C26=1.5354       C11-C30=1.5357       C12-C11=1.5208       C12-C13=1.3865       C12-C14=1.3933       C13-C12=1.3865       
C13-C15=1.3851       C13-H16=1.0777       C14-C12=1.3933       C14-C17=1.3785       C14-H18=1.0803       C15-C13=1.3851       
C15-C19=1.3874       C15-H20=1.0810       H16-C13=1.0777       C17-C14=1.3785       C17-C19=1.3919       C17-H21=1.0787       
H18-C14=1.0803       C19-C15=1.3874       C19-C17=1.3919       C19-O24=1.3628       H20-C15=1.0810       H21-C17=1.0787       
O22-C4=1.3627        O22-H23=0.9688       H23-O22=0.9688       O24-C19=1.3628       O24-H25=0.9690       H25-O24=0.9690       
C26-C11=1.5354       C26-H27=1.0871       C26-H28=1.0869       C26-H29=1.0882       H27-C26=1.0871       H28-C26=1.0869       
H29-C26=1.0882       C30-C11=1.5357       C30-H31=1.0881       C30-H32=1.0871       C30-H33=1.0868       H31-C30=1.0881       
H32-C30=1.0871       H33-C30=1.0868       
 C  H  Rav=1.0829 sigma=0.0040  Rmin=1.0777  Rmax=1.0882    14
 C  C  Rav=1.4224 sigma=0.0613  Rmin=1.3785  Rmax=1.5357    16
 O  H  Rav=0.9689 sigma=0.0001  Rmin=0.9688  Rmax=0.9690     2
 O  C  Rav=1.3628 sigma=0.0000  Rmin=1.3627  Rmax=1.3628     2
 
 selected bond angles (degree)
 --------------------
C6-C1-C2=117.89                C11-C1-C2=118.43               C11-C1-C6=123.67               C3-C2-C1=121.55                
H9-C2-C1=119.43                H9-C2-C3=119.01                C4-C3-C2=119.97                H7-C3-C2=119.89                
H7-C3-C4=120.14                C5-C4-C3=119.07                O22-C4-C3=122.59               O22-C4-C5=118.34               
C6-C5-C4=120.38                H10-C5-C4=118.66               H10-C5-C6=120.96               C5-C6-C1=121.15                
H8-C6-C1=120.65                H8-C6-C5=118.21                
 
 selected dihedral angles (degree)
 ---------------------------------
C3-C2-C1-C6=359.72            C3-C2-C1-C11=180.95           H9-C2-C1-C6=180.53            H9-C2-C1-C11=  1.76           
C4-C3-C2-C1=  0.00            C4-C3-C2-H9=179.20            H7-C3-C2-C1=180.17            H7-C3-C2-H9=359.37            
C5-C4-C3-C2=  0.17            C5-C4-C3-H7=180.01            O22-C4-C3-C2=180.22           O22-C4-C3-H7=  0.05           
C6-C5-C4-C3=359.92            C6-C5-C4-O22=179.88           H10-C5-C4-C3=180.03           H10-C5-C4-O22=  0.00          
C5-C6-C1-C2=  0.37            C5-C6-C1-C11=179.08           H8-C6-C1-C2=180.17            H8-C6-C1-C11=358.88           
C1-C6-C5-C4=359.80            C1-C6-C5-H10=179.69           H8-C6-C5-C4=179.99            H8-C6-C5-H10=359.89           
           -------------------------------------------------
          |                Final Singlepoint                |
           -------------------------------------------------

          ...................................................
          :                      SETUP                      :
          :.................................................:
          :  # basis functions                  84          :
          :  # atomic orbitals                  84          :
          :  # shells                           50          :
          :  # electrons                        88          :
          :  max. iterations                   250          :
          :  Hamiltonian                  GFN2-xTB          :
          :  restarted?                      false          :
          :  GBSA solvation                   true          :
          :  PC potential                    false          :
          :  electronic temp.          300.0000000     K    :
          :  accuracy                    1.0000000          :
          :  -> integral cutoff          0.2500000E+02      :
          :  -> integral neglect         0.1000000E-07      :
          :  -> SCF convergence          0.1000000E-05 Eh   :
          :  -> wf. convergence          0.1000000E-03 e    :
          :  Broyden damping             0.4000000          :
          ...................................................

 iter      E             dE          RMSdq      gap      omega  full diag
   1    -49.1894026 -0.491894E+02  0.115E-04    4.08       0.0  T
   2    -49.1894026 -0.482601E-10  0.683E-05    4.08     254.8  T
   3    -49.1894026 -0.731148E-11  0.419E-05    4.08     415.9  T

   *** convergence criteria satisfied after 3 iterations ***

         #    Occupation            Energy/Eh            Energy/eV
      -------------------------------------------------------------
         1        2.0000           -0.7050623             -19.1857
       ...           ...                  ...                  ...
        38        2.0000           -0.4200675             -11.4306
        39        2.0000           -0.4134487             -11.2505
        40        2.0000           -0.4073401             -11.0843
        41        2.0000           -0.4007700             -10.9055
        42        2.0000           -0.3992891             -10.8652
        43        2.0000           -0.3770332             -10.2596
        44        2.0000           -0.3699581             -10.0671 (HOMO)
        45                         -0.2200198              -5.9870 (LUMO)
        46                         -0.2169120              -5.9025
        47                         -0.2098708              -5.7109
        48                         -0.2057466              -5.5986
        49                         -0.0856391              -2.3304
       ...                                ...                  ...
        84                          0.6721755              18.2908
      -------------------------------------------------------------
                  HL-Gap            0.1499383 Eh            4.0800 eV
             Fermi-level           -0.2949889 Eh           -8.0271 eV

 SCC (total)                   0 d,  0 h,  0 min,  0.031 sec
 SCC setup                      ...        0 min,  0.001 sec (  2.349%)
 Dispersion                     ...        0 min,  0.000 sec (  0.574%)
 classical contributions        ...        0 min,  0.000 sec (  0.128%)
 integral evaluation            ...        0 min,  0.007 sec ( 21.757%)
 iterations                     ...        0 min,  0.007 sec ( 23.229%)
 molecular gradient             ...        0 min,  0.016 sec ( 50.684%)
 printout                       ...        0 min,  0.000 sec (  1.182%)

         :::::::::::::::::::::::::::::::::::::::::::::::::::::
         ::                     SUMMARY                     ::
         :::::::::::::::::::::::::::::::::::::::::::::::::::::
         :: total energy             -48.422264997467 Eh    ::
         :: total w/o Gsasa/hb       -48.412209447565 Eh    ::
         :: gradient norm              0.000742733079 Eh/a0 ::
         :: HOMO-LUMO gap              4.080028842471 eV    ::
         ::.................................................::
         :: SCC energy               -49.189402576132 Eh    ::
         :: -> isotropic ES            0.059481150034 Eh    ::
         :: -> anisotropic ES          0.007594630323 Eh    ::
         :: -> anisotropic XC          0.019855375030 Eh    ::
         :: -> dispersion             -0.034858014397 Eh    ::
         :: -> Gsolv                  -0.018132124736 Eh    ::
         ::    -> Gelec               -0.008076574834 Eh    ::
         ::    -> Gsasa                0.000738441830 Eh    ::
         ::    -> Ghb                 -0.011874751430 Eh    ::
         ::    -> Gshift               0.001080759698 Eh    ::
         :: repulsion energy           0.766767936538 Eh    ::
         :: add. restraining           0.000000000000 Eh    ::
         :: total charge              -0.000000000000 e     ::
         :::::::::::::::::::::::::::::::::::::::::::::::::::::

           ------------------------------------------------- 
          |                Numerical Hessian                |
           ------------------------------------------------- 
step length          :   0.00500
SCC accuracy         :   0.30000
Hessian scale factor :   1.00000
frozen atoms in %    :   0.00000    0
RMS gradient         :   0.00074
estimated CPU  time      0.08 min
estimated wall time      0.08 min

writing file <hessian>.

 projected vibrational frequencies (cm⁻¹)
eigval :       -0.00    -0.00    -0.00     0.00     0.00     0.00
eigval :       35.59    37.58    50.39    88.46   147.20   182.28
eigval :      216.04   255.59   262.69   276.48   297.54   318.26
eigval :      320.97   369.68   371.04   378.56   386.85   396.72
eigval :      398.53   403.86   450.89   474.23   513.66   539.09
eigval :      545.47   611.62   612.64   650.90   683.49   695.28
eigval :      764.52   806.99   809.04   838.64   860.60   864.01
eigval :      864.87   900.31   904.77   920.06   924.80   955.96
eigval :      961.35  1005.49  1010.03  1013.20  1100.22  1105.62
eigval :     1110.88  1129.50  1138.23  1142.62  1179.64  1190.95
eigval :     1194.94  1237.59  1241.48  1275.96  1279.45  1281.49
eigval :     1287.01  1330.95  1334.66  1393.96  1410.90  1418.08
eigval :     1419.27  1488.98  1489.16  1497.85  1499.70  1507.30
eigval :     1508.41  1582.15  1585.01  1610.41  1611.78  3022.81
eigval :     3023.96  3030.35  3035.41  3041.22  3042.55  3063.53
eigval :     3065.74  3075.72  3079.75  3092.88  3100.06  3110.59
eigval :     3111.61  3458.90  3462.22
           -------------------------------------------------
          |                Property Printout                |
           -------------------------------------------------

    * Orbital Energies and Occupations

         #    Occupation            Energy/Eh            Energy/eV
      -------------------------------------------------------------
         1        2.0000           -0.7050622             -19.1857
       ...           ...                  ...                  ...
        32        2.0000           -0.4584791             -12.4759
        33        2.0000           -0.4553293             -12.3901
        34        2.0000           -0.4503817             -12.2555
        35        2.0000           -0.4473705             -12.1736
        36        2.0000           -0.4366272             -11.8812
        37        2.0000           -0.4274984             -11.6328
        38        2.0000           -0.4200675             -11.4306
        39        2.0000           -0.4134487             -11.2505
        40        2.0000           -0.4073400             -11.0843
        41        2.0000           -0.4007701             -10.9055
        42        2.0000           -0.3992892             -10.8652
        43        2.0000           -0.3770331             -10.2596
        44        2.0000           -0.3699580             -10.0671 (HOMO)
        45                         -0.2200199              -5.9870 (LUMO)
        46                         -0.2169121              -5.9025
        47                         -0.2098707              -5.7109
        48                         -0.2057465              -5.5986
        49                         -0.0856391              -2.3304
        50                         -0.0853017              -2.3212
        51                          0.0670408               1.8243
        52                          0.0675132               1.8371
        53                          0.0844229               2.2973
        54                          0.0871933               2.3726
        55                          0.1095126               2.9800
       ...                                ...                  ...
        84                          0.6721755              18.2908
      -------------------------------------------------------------
                  HL-Gap            0.1499381 Eh            4.0800 eV
             Fermi-level           -0.2949889 Eh           -8.0271 eV

     #   Z          covCN         q      C6AA      α(0)
     1   6 C        2.978    -0.001    28.047     8.687
     2   6 C        2.928    -0.039    28.979     8.828
     3   6 C        2.917    -0.077    29.935     8.972
     4   6 C        2.846     0.140    24.949     8.186
     5   6 C        2.919    -0.065    29.613     8.924
     6   6 C        2.925    -0.044    29.096     8.846
     7   1 H        0.926     0.037     2.484     2.465
     8   1 H        0.926     0.046     2.372     2.409
     9   1 H        0.926     0.032     2.555     2.500
    10   1 H        0.926     0.042     2.417     2.431
    11   6 C        3.909     0.017    20.232     6.393
    12   6 C        2.979    -0.001    28.046     8.687
    13   6 C        2.924    -0.045    29.110     8.848
    14   6 C        2.928    -0.039    28.967     8.826
    15   6 C        2.918    -0.079    29.975     8.978
    16   1 H        0.926     0.046     2.366     2.405
    17   6 C        2.918    -0.063    29.574     8.918
    18   1 H        0.926     0.032     2.564     2.504
    19   6 C        2.846     0.140    24.948     8.186
    20   1 H        0.926     0.039     2.460     2.453
    21   1 H        0.926     0.041     2.439     2.442
    22   8 O        1.659    -0.464    22.125     6.350
    23   1 H        0.804     0.369     0.546     1.161
    24   8 O        1.659    -0.464    22.135     6.351
    25   1 H        0.804     0.369     0.545     1.160
    26   6 C        3.762    -0.110    22.657     6.785
    27   1 H        0.925     0.046     2.372     2.409
    28   1 H        0.925     0.039     2.458     2.452
    29   1 H        0.925     0.041     2.441     2.443
    30   6 C        3.762    -0.111    22.665     6.786
    31   1 H        0.925     0.040     2.445     2.446
    32   1 H        0.925     0.046     2.366     2.406
    33   1 H        0.925     0.041     2.440     2.443

 Mol. C6AA /au·bohr⁶  :      12219.748074
 Mol. C8AA /au·bohr⁸  :     293670.527155
 Mol. α(0) /au        :        174.078954


Wiberg/Mayer (AO) data.
largest (>0.10) Wiberg bond orders for each atom

 ---------------------------------------------------------------------------
     #   Z sym  total        # sym  WBO       # sym  WBO       # sym  WBO
 ---------------------------------------------------------------------------
     1   6 C    3.986 --     6 C    1.412     2 C    1.402    11 C    0.977
     2   6 C    3.992 --     3 C    1.457     1 C    1.402     9 H    0.968
                             5 C    0.109
     3   6 C    3.986 --     2 C    1.457     4 C    1.368     7 H    0.966
                             6 C    0.103
     4   6 C    3.937 --     5 C    1.371     3 C    1.368    22 O    1.067
     5   6 C    3.987 --     6 C    1.450     4 C    1.371    10 H    0.969
                             2 C    0.109
     6   6 C    3.990 --     5 C    1.450     1 C    1.412     8 H    0.965
                             3 C    0.103
     7   1 H    0.998 --     3 C    0.966
     8   1 H    0.998 --     6 C    0.965
     9   1 H    0.999 --     2 C    0.968
    10   1 H    0.998 --     5 C    0.969
    11   6 C    3.991 --    30 C    0.985    26 C    0.985     1 C    0.977
                            12 C    0.977
    12   6 C    3.986 --    13 C    1.422    14 C    1.392    11 C    0.977
    13   6 C    3.990 --    15 C    1.437    12 C    1.422    16 H    0.966
                            17 C    0.106
    14   6 C    3.992 --    17 C    1.470    12 C    1.392    18 H    0.968
                            15 C    0.107
    15   6 C    3.985 --    13 C    1.437    19 C    1.382    20 H    0.966
                            14 C    0.107
    16   1 H    0.998 --    13 C    0.966
    17   6 C    3.989 --    14 C    1.470    19 C    1.357    21 H    0.969
                            13 C    0.106
    18   1 H    0.999 --    14 C    0.968
    19   6 C    3.937 --    15 C    1.382    17 C    1.357    24 O    1.067
    20   1 H    0.998 --    15 C    0.966
    21   1 H    0.998 --    17 C    0.969
    22   8 O    2.067 --     4 C    1.067    23 H    0.844
    23   1 H    0.864 --    22 O    0.844
    24   8 O    2.066 --    19 C    1.067    25 H    0.844
    25   1 H    0.864 --    24 O    0.844
    26   6 C    3.994 --    11 C    0.985    29 H    0.985    28 H    0.985
                            27 H    0.982
    27   1 H    0.997 --    26 C    0.982
    28   1 H    0.998 --    26 C    0.985
    29   1 H    0.998 --    26 C    0.985
    30   6 C    3.994 --    11 C    0.985    31 H    0.985    33 H    0.984
                            32 H    0.982
    31   1 H    0.998 --    30 C    0.985
    32   1 H    0.997 --    30 C    0.982
    33   1 H    0.998 --    30 C    0.984
 ---------------------------------------------------------------------------

Topologies differ in total number of bonds
Writing topology from bond orders to xtbtopo.mol

molecular dipole:
                 x           y           z       tot (Debye)
 q only:       -0.493       0.303       0.899
   full:       -0.616       0.224       1.123       3.305
molecular quadrupole (traceless):
                xx          xy          yy          xz          yz          zz
 q only:       -0.337      -5.409       1.034      -2.184      -5.746      -0.697
  q+dip:        0.265      -6.854       0.096      -5.586      -7.244      -0.360
   full:       -0.417      -6.857       0.512      -3.374      -7.327      -0.095

           -------------------------------------------------
          |                Geometry Summary                 |
           -------------------------------------------------

      molecular mass/u    :      228.2869003
   center of mass at/Å    :        0.0059213      -0.0415714      -0.0033837
  moments of inertia/u·Å² :        0.5947492E+03   0.1840257E+04   0.2128550E+04
rotational constants/cm⁻¹ :        0.2834410E-01   0.9160475E-02   0.7919775E-02

 * 32 selected distances

     #   Z          #   Z                                           value/Å
     1   6 C        2   6 C                                       1.3913786
     2   6 C        3   6 C                                       1.3809097
     3   6 C        4   6 C                                       1.3897870
     4   6 C        5   6 C                                       1.3894833
     1   6 C        6   6 C                                       1.3883771
     5   6 C        6   6 C                                       1.3824856
     3   6 C        7   1 H                                       1.0807223
     6   6 C        8   1 H                                       1.0777656
     2   6 C        9   1 H                                       1.0804499
     5   6 C       10   1 H                                       1.0790568
    12   6 C       13   6 C                                       1.3865282
    12   6 C       14   6 C                                       1.3933242
    13   6 C       15   6 C                                       1.3851262
    13   6 C       16   1 H                                       1.0777362
    14   6 C       17   6 C                                       1.3785051
    14   6 C       18   1 H                                       1.0803447
    15   6 C       19   6 C                                       1.3874139
    17   6 C       19   6 C                                       1.3919181
    15   6 C       20   1 H                                       1.0809912
    17   6 C       21   1 H                                       1.0786767
     4   6 C       22   8 O                                       1.3627248
    22   8 O       23   1 H                                       0.9687759 (min)
    19   6 C       24   8 O                                       1.3627799
    24   8 O       25   1 H                                       0.9690284
    11   6 C       26   6 C                                       1.5353696
    26   6 C       27   1 H                                       1.0871153
    26   6 C       28   1 H                                       1.0869332
    26   6 C       29   1 H                                       1.0881537
    11   6 C       30   6 C                                       1.5356747 (max)
    30   6 C       31   1 H                                       1.0881225
    30   6 C       32   1 H                                       1.0870839
    30   6 C       33   1 H                                       1.0868427

 * 4 distinct bonds (by element types)

   Z      Z             #   av. dist./Å        max./Å        min./Å
   1 H    6 C          14     1.0828567     1.0881537     1.0777362
   6 C    6 C          14     1.4083058     1.5356747     1.3785051
   1 H    8 O           2     0.9689022     0.9690284     0.9687759
   6 C    8 O           2     1.3627524     1.3627799     1.3627248

           -------------------------------------------------
          |               Frequency Printout                |
           -------------------------------------------------
 projected vibrational frequencies (cm⁻¹)
eigval :       -0.00    -0.00    -0.00     0.00     0.00     0.00
eigval :       35.59    37.58    50.39    88.46   147.20   182.28
eigval :      216.04   255.59   262.69   276.48   297.54   318.26
eigval :      320.97   369.68   371.04   378.56   386.85   396.72
eigval :      398.53   403.86   450.89   474.23   513.66   539.09
eigval :      545.47   611.62   612.64   650.90   683.49   695.28
eigval :      764.52   806.99   809.04   838.64   860.60   864.01
eigval :      864.87   900.31   904.77   920.06   924.80   955.96
eigval :      961.35  1005.49  1010.03  1013.20  1100.22  1105.62
eigval :     1110.88  1129.50  1138.23  1142.62  1179.64  1190.95
eigval :     1194.94  1237.59  1241.48  1275.96  1279.45  1281.49
eigval :     1287.01  1330.95  1334.66  1393.96  1410.90  1418.08
eigval :     1419.27  1488.98  1489.16  1497.85  1499.70  1507.30
eigval :     1508.41  1582.15  1585.01  1610.41  1611.78  3022.81
eigval :     3023.96  3030.35  3035.41  3041.22  3042.55  3063.53
eigval :     3065.74  3075.72  3079.75  3092.88  3100.06  3110.59
eigval :     3111.61  3458.90  3462.22
 reduced masses (amu)
   1: 12.28   2: 12.30   3: 12.13   4: 11.80   5: 11.81   6: 10.97   7: 12.17   8: 10.08
   9: 10.70  10: 11.18  11: 11.45  12: 11.00  13:  9.78  14:  9.67  15:  6.18  16:  7.51
  17:  2.44  18:  9.03  19: 10.30  20:  6.85  21:  7.19  22:  9.96  23: 10.62  24:  5.78
  25:  5.54  26:  8.99  27: 10.27  28:  9.99  29: 10.95  30:  8.94  31:  9.29  32: 11.45
  33: 11.41  34: 11.17  35: 11.35  36: 11.15  37: 10.01  38:  5.16  39:  5.32  40: 11.96
  41:  3.49  42:  4.14  43:  9.70  44:  2.91  45:  2.69  46:  3.92  47:  3.64  48:  7.98
  49:  4.23  50:  9.07  51:  7.84  52:  4.23  53:  4.37  54:  4.24  55:  5.49  56:  4.98
  57:  4.08  58:  3.44  59:  8.79  60:  2.52  61:  2.63  62:  7.83  63:  7.72  64:  9.67
  65:  6.33  66:  4.93  67:  8.30  68: 11.55  69: 11.67  70:  3.29  71:  3.24  72:  9.77
  73:  9.70  74:  6.70  75:  7.00  76:  5.37  77:  2.69  78:  2.12  79:  1.58  80: 11.57
  81: 11.59  82: 11.54  83: 11.56  84:  1.94  85:  1.93  86:  1.83  87:  1.81  88:  1.39
  89:  1.38  90:  1.79  91:  1.81  92:  1.80  93:  1.86  94:  1.80  95:  1.86  96:  1.84
  97:  1.86  98:  1.87  99:  1.87
 IR intensities (km·mol⁻¹)
   1:  0.06   2:  0.18   3:  0.14   4:  0.08   5:  0.36   6:  0.19   7:  0.26   8:  0.69
   9:  1.54  10:  0.32  11:  0.43  12:  0.72  13:  0.56  14:  0.44  15:  0.67  16:  2.19
  17:  0.26  18:  1.83  19:  0.18  20: 39.35  21: 77.57  22:  7.40  23:  0.31  24:169.19
  25:105.78  26: 33.61  27:  5.68  28:  1.90  29:  4.06  30:  4.14  31:  1.96  32:  1.60
  33:  1.26  34:  7.76  35:  9.45  36:  2.29  37: 35.56  38: 53.78  39: 24.36  40: 34.22
  41:  1.12  42:  1.24  43: 19.21  44:  0.11  45:  0.11  46:  0.22  47:  0.08  48:  0.09
  49:  1.96  50: 46.29  51:  9.20  52:  4.95  53:177.14  54:342.30  55:107.70  56:101.06
  57: 13.25  58: 25.25  59:  6.34  60: 68.50  61: 39.42  62: 53.00  63:166.77  64:137.90
  65:102.79  66: 58.00  67:102.19  68: 28.60  69: 45.65  70:  3.50  71:  1.37  72: 21.86
  73: 26.38  74:123.84  75:119.41  76: 39.63  77: 24.24  78: 25.43  79:  3.25  80: 18.83
  81: 26.93  82: 81.34  83: 47.22  84: 10.67  85:121.37  86: 29.29  87:132.72  88: 77.00
  89:  7.86  90: 60.26  91: 89.97  92: 89.52  93: 90.80  94: 47.20  95: 97.52  96: 45.28
  97: 64.39  98:138.49  99:130.69
 Raman intensities (amu)
   1:  0.00   2:  0.00   3:  0.00   4:  0.00   5:  0.00   6:  0.00   7:  0.00   8:  0.00
   9:  0.00  10:  0.00  11:  0.00  12:  0.00  13:  0.00  14:  0.00  15:  0.00  16:  0.00
  17:  0.00  18:  0.00  19:  0.00  20:  0.00  21:  0.00  22:  0.00  23:  0.00  24:  0.00
  25:  0.00  26:  0.00  27:  0.00  28:  0.00  29:  0.00  30:  0.00  31:  0.00  32:  0.00
  33:  0.00  34:  0.00  35:  0.00  36:  0.00  37:  0.00  38:  0.00  39:  0.00  40:  0.00
  41:  0.00  42:  0.00  43:  0.00  44:  0.00  45:  0.00  46:  0.00  47:  0.00  48:  0.00
  49:  0.00  50:  0.00  51:  0.00  52:  0.00  53:  0.00  54:  0.00  55:  0.00  56:  0.00
  57:  0.00  58:  0.00  59:  0.00  60:  0.00  61:  0.00  62:  0.00  63:  0.00  64:  0.00
  65:  0.00  66:  0.00  67:  0.00  68:  0.00  69:  0.00  70:  0.00  71:  0.00  72:  0.00
  73:  0.00  74:  0.00  75:  0.00  76:  0.00  77:  0.00  78:  0.00  79:  0.00  80:  0.00
  81:  0.00  82:  0.00  83:  0.00  84:  0.00  85:  0.00  86:  0.00  87:  0.00  88:  0.00
  89:  0.00  90:  0.00  91:  0.00  92:  0.00  93:  0.00  94:  0.00  95:  0.00  96:  0.00
  97:  0.00  98:  0.00  99:  0.00
 output can be read by thermo (or use thermo option).
 writing <g98.out> molden fake output.
 recommended (thermochemical) frequency scaling factor: 1.0
           -------------------------------------------------
          |             Thermodynamic Functions             |
           -------------------------------------------------

Molecule has no symmetry elements
It seems to be the C1 point group
c1  symmetry found (for desy threshold:  0.10E+00) used in thermo

          ...................................................
          :                      SETUP                      :
          :.................................................:
          :  # frequencies                          93      :
          :  # imaginary freq.                       0      :
          :  linear?                             false      :
          :  only rotor calc.                    false      :
          :  symmetry                               c1      :
          :  rotational number                       1      :
          :  scaling factor                  1.0000000      :
          :  rotor cutoff                   50.0000000 cm⁻¹ :
          :  imag. cutoff                  -20.0000000 cm⁻¹ :
          :.................................................:

    mode    ω/cm⁻¹     T·S(HO)/kcal·mol⁻¹    T·S(FR)/kcal·mol⁻¹   T·S(vib)
   ------------------------------------------------------------------------
       1     35.59    -1.63694 ( 20.44%)    -1.15713 ( 79.56%)    -1.25518
       2     37.58    -1.60489 ( 24.19%)    -1.14107 ( 75.81%)    -1.25326
       3     50.39    -1.43173 ( 50.77%)    -1.05419 ( 49.23%)    -1.24589
       4     88.46    -1.10130 ( 90.74%)    -0.88749 (  9.26%)    -1.08150
       5    147.20    -0.80741 ( 98.69%)    -0.73665 (  1.31%)    -0.80648
       6    182.28    -0.68723 ( 99.44%)    -0.67334 (  0.56%)    -0.68715
       7    216.04    -0.59391 ( 99.71%)    -0.62300 (  0.29%)    -0.59400
       8    255.59    -0.50438 ( 99.85%)    -0.57320 (  0.15%)    -0.50448
       9    262.69    -0.49011 ( 99.87%)    -0.56509 (  0.13%)    -0.49021
      10    276.48    -0.46373 ( 99.89%)    -0.54993 (  0.11%)    -0.46382
      11    297.54    -0.42657 ( 99.92%)    -0.52819 (  0.08%)    -0.42665
   ------------------------------------------------------------------------

   temp. (K)  partition function   enthalpy   heat capacity  entropy
                                   cal/mol     cal/K/mol   cal/K/mol   J/K/mol
 298.15  VIB  0.130E+06             8160.146     57.639     47.615
         ROT  0.369E+07              888.752      2.981     33.029
         INT  0.478E+12             9048.898     60.620     80.644
         TR   0.334E+28             1481.254      4.968     42.159
         TOT                       10530.1520    65.5883   122.8033   513.8088

       T/K    H(0)-H(T)+PV         H(T)/Eh          T*S/Eh         G(T)/Eh
   ------------------------------------------------------------------------
    298.15    0.167809E-01    0.282820E+00    0.583478E-01    0.224472E+00
   ------------------------------------------------------------------------

         :::::::::::::::::::::::::::::::::::::::::::::::::::::
         ::                  THERMODYNAMIC                  ::
         :::::::::::::::::::::::::::::::::::::::::::::::::::::
         :: total free energy         -48.197792970713 Eh   ::
         ::.................................................::
         :: total energy              -48.422264996038 Eh   ::
         :: zero point energy           0.266038950272 Eh   ::
         :: G(RRHO) w/o ZPVE           -0.041566924947 Eh   ::
         :: G(RRHO) contrib.            0.224472025325 Eh   ::
         :::::::::::::::::::::::::::::::::::::::::::::::::::::

optimized geometry written to: xtbopt.xyz


           -------------------------------------------------
          | TOTAL ENERGY              -48.422264996038 Eh   |
          | TOTAL ENTHALPY            -48.139445180412 Eh   |
          | TOTAL FREE ENERGY         -48.197792970713 Eh   |
          | GRADIENT NORM               0.000742865448 Eh/α |
          | HOMO-LUMO GAP               4.080023698009 eV   |
           -------------------------------------------------

------------------------------------------------------------------------
 * finished run on 2021/11/15 at 09:36:17.344     
------------------------------------------------------------------------
 total:
 * wall-time:     0 d,  0 h,  0 min,  5.243 sec
 *  cpu-time:     0 d,  0 h,  0 min,  5.203 sec
 * ratio c/w:     0.992 speedup
 SCF:
 * wall-time:     0 d,  0 h,  0 min,  0.033 sec
 *  cpu-time:     0 d,  0 h,  0 min,  0.031 sec
 * ratio c/w:     0.933 speedup
 ANC optimizer:
 * wall-time:     0 d,  0 h,  0 min,  0.405 sec
 *  cpu-time:     0 d,  0 h,  0 min,  0.391 sec
 * ratio c/w:     0.964 speedup
 analytical hessian:
 * wall-time:     0 d,  0 h,  0 min,  4.757 sec
 *  cpu-time:     0 d,  0 h,  0 min,  4.750 sec
 * ratio c/w:     0.998 speedup

