 Entering Gaussian System
 *********************************************
 Gaussian 98:
 frequency output generated by the xtb code
 *********************************************
                         Standard orientation:
 --------------------------------------------------------------------
  Center     Atomic     Atomic              Coordinates (Angstroms)
  Number     Number      Type              X           Y           Z
 --------------------------------------------------------------------
    1          6             0        1.235617    0.613995   -0.013004
    2          6             0        1.331589   -0.419492    0.913618
    3          6             0        2.434039   -1.249859    0.958399
    4          6             0        3.481129   -1.062319    0.064006
    5          6             0        3.399714   -0.031483   -0.864116
    6          6             0        2.291107    0.793857   -0.896848
    7          1             0        2.479291   -2.046170    1.687647
    8          1             0        2.264582    1.582427   -1.631037
    9          1             0        0.520687   -0.587327    1.607621
   10          1             0        4.216232    0.107900   -1.555660
   11          6             0       -0.000719    1.499210    0.015129
   12          6             0       -1.227930    0.600973    0.023525
   13          6             0       -2.300808    0.775203    0.884361
   14          6             0       -1.298518   -0.435657   -0.904789
   15          6             0       -3.405127   -0.059191    0.831060
   16          1             0       -2.293672    1.565206    1.617409
   17          6             0       -2.392140   -1.272391   -0.969145
   18          1             0       -0.473873   -0.596946   -1.583827
   19          6             0       -3.459997   -1.090869   -0.094978
   20          1             0       -4.226563    0.096984    1.516183
   21          1             0       -2.440653   -2.074504   -1.688732
   22          8             0        4.591525   -1.852257    0.057814
   23          1             0        4.528638   -2.529589    0.747592
   24          8             0       -4.521861   -1.940035   -0.187340
   25          1             0       -5.195697   -1.711517    0.470490
   26          6             0       -0.115409    2.410211   -1.215434
   27          1             0        0.685684    3.144982   -1.228878
   28          1             0       -0.086840    1.830399   -2.134360
   29          1             0       -1.064590    2.941059   -1.178923
   30          6             0        0.103075    2.387435    1.263560
   31          1             0        1.051869    2.919800    1.243871
   32          1             0       -0.698343    3.121643    1.284081
   33          1             0        0.067446    1.791398    2.171687
 --------------------------------------------------------------------
     1 basis functions        1 primitive gaussians
     1 alpha electrons        1 beta electrons
 
 Harmonic frequencies (cm**-1), IR intensities (km*mol⁻¹),
 Raman scattering activities (A**4/amu), Raman depolarization ratios,
 reduced masses (AMU), force constants (mDyne/A) and normal coordinates:
                      1                      2                      3
                        a                      a                      a 
 Frequencies --    35.5947                37.5783                50.3889
 Red. masses --    12.1744                10.0779                10.6982
 Frc consts  --     0.0000                 0.0000                 0.0000
 IR Inten    --     0.2582                 0.6899                 1.5445
 Raman Activ --     0.0000                 0.0000                 0.0000
 Depolar     --     0.0000                 0.0000                 0.0000
 Atom AN      X      Y      Z        X      Y      Z        X      Y      Z
   1   6    -0.02   0.12   0.05     0.02   0.01   0.07     0.00   0.06   0.03
   2   6    -0.03   0.20   0.15     0.17   0.15   0.20    -0.13  -0.10  -0.14
   3   6    -0.11   0.10   0.13     0.18   0.15   0.14    -0.18  -0.17  -0.19
   4   6    -0.19  -0.11  -0.01     0.02   0.01  -0.08    -0.08  -0.05  -0.06
   5   6    -0.17  -0.18  -0.09    -0.13  -0.13  -0.22     0.08   0.15   0.15
   6   6    -0.09  -0.07  -0.07    -0.13  -0.13  -0.14     0.12   0.21   0.19
   7   1    -0.03   0.05   0.06     0.09   0.08   0.07    -0.08  -0.09  -0.10
   8   1    -0.02  -0.04  -0.04    -0.07  -0.07  -0.07     0.07   0.10   0.10
   9   1     0.00   0.10   0.07     0.08   0.07   0.10    -0.06  -0.05  -0.07
  10   1    -0.07  -0.10  -0.06    -0.07  -0.07  -0.11     0.05   0.08   0.08
  11   6    -0.00   0.15   0.01     0.00  -0.02   0.11    -0.00   0.06   0.00
  12   6     0.03   0.11  -0.03     0.01  -0.04   0.07     0.00   0.06  -0.03
  13   6     0.06  -0.05   0.04    -0.14   0.13  -0.15    -0.12   0.21  -0.20
  14   6     0.07   0.17  -0.11     0.15  -0.18   0.22     0.13  -0.10   0.15
  15   6     0.14  -0.15   0.05    -0.16   0.16  -0.23    -0.08   0.16  -0.16
  16   1     0.01  -0.03   0.03    -0.07   0.07  -0.08    -0.07   0.10  -0.11
  17   6     0.14   0.07  -0.10     0.14  -0.16   0.16     0.18  -0.17   0.20
  18   1     0.01   0.09  -0.05     0.08  -0.09   0.11     0.06  -0.06   0.07
  19   6     0.19  -0.10  -0.01    -0.02   0.02  -0.08     0.08  -0.05   0.06
  20   1     0.05  -0.08   0.03    -0.08   0.09  -0.12    -0.05   0.08  -0.09
  21   1     0.05   0.03  -0.04     0.07  -0.08   0.08     0.09  -0.09   0.10
  22   8    -0.33  -0.28  -0.07     0.01  -0.01  -0.19    -0.17  -0.16  -0.16
  23   1    -0.09  -0.06  -0.00     0.03   0.02  -0.02    -0.07  -0.08  -0.08
  24   8     0.32  -0.25   0.01    -0.04   0.06  -0.18     0.18  -0.18   0.17
  25   1     0.09  -0.10   0.02    -0.05   0.05  -0.09     0.02  -0.02   0.01
  26   6     0.05   0.16   0.02    -0.03   0.02   0.15     0.03   0.06  -0.01
  27   1     0.03   0.03   0.01    -0.00  -0.00   0.03    -0.00   0.03   0.01
  28   1     0.00   0.05   0.00    -0.04   0.01   0.04     0.04   0.01   0.00
  29   1     0.02   0.06   0.01    -0.00   0.02   0.06    -0.00   0.00  -0.02
  30   6    -0.06   0.15   0.02    -0.03  -0.06   0.15    -0.03   0.05   0.01
  31   1    -0.03   0.06   0.01     0.00  -0.03   0.06    -0.00  -0.00   0.02
  32   1    -0.03   0.03   0.00     0.00  -0.00   0.03     0.00   0.03  -0.01
  33   1    -0.01   0.04   0.01    -0.04  -0.02   0.04    -0.04   0.01   0.00
                      4                      5                      6
                        a                      a                      a 
 Frequencies --    88.4627               147.2029               182.2752
 Red. masses --    11.1814                11.4464                11.0033
 Frc consts  --     0.0000                 0.0000                 0.0000
 IR Inten    --     0.3179                 0.4307                 0.7247
 Raman Activ --     0.0000                 0.0000                 0.0000
 Depolar     --     0.0000                 0.0000                 0.0000
 Atom AN      X      Y      Z        X      Y      Z        X      Y      Z
   1   6     0.07   0.11   0.14    -0.06   0.01  -0.15    -0.07  -0.14   0.18
   2   6     0.08   0.10   0.12    -0.19  -0.06  -0.21    -0.01  -0.23   0.07
   3   6     0.04   0.04   0.03    -0.23  -0.09  -0.16     0.04  -0.20  -0.06
   4   6    -0.01  -0.01  -0.03    -0.12  -0.02  -0.01     0.02  -0.06  -0.05
   5   6     0.05   0.11   0.09    -0.09  -0.08  -0.09    -0.13  -0.07  -0.05
   6   6     0.09   0.16   0.17    -0.07  -0.06  -0.17    -0.16  -0.12   0.08
   7   1     0.01  -0.00  -0.00    -0.09  -0.03  -0.05     0.03  -0.07  -0.03
   8   1     0.03   0.06   0.07    -0.02  -0.02  -0.05    -0.06  -0.03   0.03
   9   1     0.03   0.03   0.04    -0.07  -0.01  -0.08     0.01  -0.09   0.03
  10   1     0.01   0.03   0.02    -0.01  -0.03  -0.01    -0.05  -0.00  -0.03
  11   6    -0.01  -0.00   0.02     0.00   0.08   0.00     0.00  -0.00   0.12
  12   6     0.07  -0.11   0.14     0.06   0.01   0.15    -0.08   0.13   0.17
  13   6     0.09  -0.16   0.17     0.07  -0.05   0.16    -0.16   0.13   0.07
  14   6     0.08  -0.10   0.13     0.19  -0.05   0.22    -0.02   0.23   0.07
  15   6     0.05  -0.10   0.09     0.08  -0.08   0.09    -0.13   0.08  -0.06
  16   1     0.03  -0.06   0.07     0.01  -0.02   0.05    -0.06   0.03   0.03
  17   6     0.04  -0.04   0.04     0.23  -0.08   0.16     0.03   0.20  -0.06
  18   1     0.03  -0.03   0.04     0.07  -0.01   0.08     0.01   0.09   0.03
  19   6    -0.01   0.01  -0.03     0.12  -0.01   0.01     0.02   0.07  -0.05
  20   1     0.01  -0.03   0.02     0.01  -0.03   0.01    -0.06   0.01  -0.03
  21   1     0.01   0.00  -0.00     0.08  -0.03   0.05     0.03   0.07  -0.03
  22   8    -0.15  -0.20  -0.27    -0.02   0.15   0.30     0.21   0.19  -0.08
  23   1    -0.05  -0.08  -0.09    -0.01   0.06   0.10     0.10   0.05  -0.02
  24   8    -0.15   0.21  -0.28     0.04   0.15  -0.30     0.23  -0.19  -0.06
  25   1    -0.05   0.06  -0.08    -0.02   0.05  -0.11     0.04  -0.09  -0.02
  26   6    -0.12  -0.26  -0.17    -0.20   0.07   0.02     0.05  -0.27  -0.09
  27   1    -0.08  -0.03  -0.08    -0.05   0.01  -0.05     0.01  -0.07  -0.07
  28   1     0.01  -0.13  -0.02    -0.12   0.01   0.01     0.03  -0.14   0.01
  29   1    -0.07  -0.13  -0.09    -0.05   0.03   0.06     0.01  -0.09  -0.07
  30   6    -0.11   0.26  -0.17     0.20   0.07  -0.01     0.05   0.27  -0.09
  31   1    -0.06   0.13  -0.09     0.05   0.04  -0.06     0.01   0.09  -0.08
  32   1    -0.07   0.03  -0.08     0.05   0.01   0.05     0.00   0.07  -0.06
  33   1     0.01   0.12  -0.01     0.12   0.02  -0.00     0.04   0.14   0.01
                      7                      8                      9
                        a                      a                      a 
 Frequencies --   216.0443               255.5899               262.6858
 Red. masses --     9.7751                 9.6750                 6.1826
 Frc consts  --     0.0000                 0.0000                 0.0000
 IR Inten    --     0.5592                 0.4380                 0.6693
 Raman Activ --     0.0000                 0.0000                 0.0000
 Depolar     --     0.0000                 0.0000                 0.0000
 Atom AN      X      Y      Z        X      Y      Z        X      Y      Z
   1   6     0.03  -0.01  -0.14    -0.13  -0.13  -0.05     0.09   0.10  -0.04
   2   6     0.06   0.10  -0.02    -0.06  -0.02   0.06     0.11   0.04  -0.09
   3   6     0.07   0.14   0.10     0.04   0.10   0.14     0.06  -0.03  -0.11
   4   6     0.06   0.04   0.07    -0.02   0.11   0.07     0.14  -0.09  -0.03
   5   6     0.15   0.07   0.10    -0.01   0.15   0.12     0.14  -0.07  -0.02
   6   6     0.12   0.05  -0.02    -0.09   0.01   0.04     0.14  -0.03  -0.04
   7   1     0.02   0.05   0.05     0.03   0.04   0.05    -0.01  -0.02  -0.04
   8   1     0.04   0.01  -0.01    -0.03  -0.01   0.01     0.06  -0.03  -0.03
   9   1     0.01   0.04  -0.01    -0.02  -0.01   0.01     0.03   0.01  -0.03
  10   1     0.05   0.02   0.04     0.00   0.06   0.05     0.04  -0.02  -0.01
  11   6    -0.00  -0.05   0.00    -0.03   0.01  -0.10     0.00   0.07   0.01
  12   6    -0.03  -0.01   0.13    -0.15   0.14  -0.04    -0.07   0.07   0.05
  13   6    -0.12   0.05   0.01    -0.12  -0.02   0.05    -0.13  -0.03   0.03
  14   6    -0.06   0.09   0.02    -0.09   0.03   0.07    -0.10   0.04   0.08
  15   6    -0.15   0.07  -0.10    -0.04  -0.16   0.12    -0.14  -0.05  -0.00
  16   1    -0.04   0.01   0.01    -0.04  -0.00   0.02    -0.05  -0.03   0.03
  17   6    -0.07   0.13  -0.10     0.02  -0.11   0.16    -0.06  -0.02   0.09
  18   1    -0.01   0.04   0.01    -0.02   0.02   0.02    -0.03   0.01   0.02
  19   6    -0.06   0.04  -0.07    -0.04  -0.13   0.08    -0.13  -0.07   0.02
  20   1    -0.06   0.02  -0.05    -0.01  -0.06   0.05    -0.04  -0.01  -0.00
  21   1    -0.02   0.05  -0.04     0.03  -0.04   0.06     0.01  -0.01   0.03
  22   8    -0.11  -0.22   0.00    -0.10   0.03  -0.21     0.13  -0.15   0.10
  23   1    -0.07  -0.06  -0.01    -0.01  -0.02  -0.08     0.01  -0.03   0.03
  24   8     0.12  -0.21   0.01    -0.10  -0.06  -0.23    -0.11  -0.14  -0.05
  25   1     0.02  -0.09   0.01    -0.06  -0.02  -0.09    -0.04  -0.04  -0.03
  26   6    -0.42  -0.09   0.02     0.38   0.07  -0.09     0.12   0.17   0.07
  27   1    -0.13  -0.02  -0.09     0.22  -0.10  -0.02     0.19  -0.13  -0.08
  28   1    -0.22  -0.04   0.01     0.02   0.02  -0.03    -0.20   0.05   0.01
  29   1    -0.12  -0.03   0.10     0.19   0.17  -0.02     0.16   0.26   0.14
  30   6     0.43  -0.09  -0.01     0.35  -0.04  -0.10    -0.18   0.17  -0.04
  31   1     0.12  -0.03  -0.10     0.16  -0.12  -0.05    -0.20   0.31  -0.15
  32   1     0.13  -0.03   0.10     0.18   0.07  -0.01    -0.25  -0.17   0.10
  33   1     0.22  -0.04  -0.01     0.05  -0.01  -0.03     0.24   0.05  -0.00
                     10                     11                     12
                        a                      a                      a 
 Frequencies --   276.4783               297.5376               318.2578
 Red. masses --     7.5136                 2.4404                 9.0264
 Frc consts  --     0.0000                 0.0000                 0.0000
 IR Inten    --     2.1883                 0.2594                 1.8309
 Raman Activ --     0.0000                 0.0000                 0.0000
 Depolar     --     0.0000                 0.0000                 0.0000
 Atom AN      X      Y      Z        X      Y      Z        X      Y      Z
   1   6    -0.09  -0.10   0.14    -0.01  -0.00   0.00     0.03   0.03   0.12
   2   6    -0.10  -0.09   0.15     0.03  -0.01  -0.00     0.04  -0.02   0.08
   3   6    -0.06  -0.06   0.11     0.02  -0.05  -0.04    -0.00  -0.12  -0.02
   4   6    -0.12   0.06   0.07     0.06  -0.02   0.02     0.01  -0.11  -0.01
   5   6    -0.14   0.07   0.10     0.06   0.02   0.07    -0.03  -0.09   0.02
   6   6    -0.16  -0.01   0.11     0.01  -0.04   0.00     0.01  -0.02   0.10
   7   1     0.00  -0.03   0.02    -0.01  -0.02  -0.02    -0.01  -0.04  -0.01
   8   1    -0.08  -0.01   0.03    -0.01  -0.03  -0.02     0.00   0.00   0.04
   9   1    -0.03  -0.03   0.04     0.01  -0.01   0.00     0.02   0.00   0.04
  10   1    -0.04   0.02   0.03     0.02   0.02   0.02    -0.01  -0.02  -0.00
  11   6     0.00  -0.05  -0.00    -0.04  -0.00  -0.01     0.03   0.07   0.04
  12   6     0.10  -0.10  -0.14    -0.00  -0.00   0.00     0.06  -0.07  -0.06
  13   6     0.16  -0.01  -0.12     0.02   0.04   0.01     0.01  -0.10  -0.11
  14   6     0.09  -0.10  -0.15     0.03   0.01  -0.01    -0.04  -0.10  -0.05
  15   6     0.14   0.07  -0.11     0.06  -0.00   0.06     0.01  -0.10  -0.11
  16   1     0.08  -0.01  -0.03     0.00   0.03  -0.02     0.01  -0.02  -0.04
  17   6     0.05  -0.07  -0.10     0.02   0.04  -0.03    -0.08  -0.10  -0.07
  18   1     0.03  -0.04  -0.04     0.01   0.01   0.00    -0.02  -0.04  -0.03
  19   6     0.10   0.05  -0.06     0.06   0.03   0.02    -0.10  -0.13  -0.07
  20   1     0.04   0.03  -0.03     0.02  -0.01   0.02     0.01  -0.02  -0.03
  21   1    -0.00  -0.03  -0.02    -0.01   0.02  -0.02    -0.01  -0.02  -0.03
  22   8    -0.06   0.19  -0.19     0.06  -0.05  -0.02     0.13   0.03  -0.02
  23   1     0.04   0.02  -0.07     0.00  -0.03  -0.03     0.07   0.01   0.00
  24   8     0.02   0.16   0.19     0.06   0.06  -0.02    -0.23  -0.06   0.11
  25   1     0.04   0.09   0.07     0.02   0.00   0.01    -0.02   0.02   0.05
  26   6    -0.06  -0.03   0.03    -0.18  -0.04  -0.02    -0.13   0.31   0.21
  27   1     0.10  -0.14  -0.13     0.16  -0.25  -0.24    -0.08   0.14   0.12
  28   1    -0.27  -0.02   0.01    -0.46  -0.06   0.01    -0.01   0.17   0.01
  29   1     0.08   0.16   0.16     0.12   0.27   0.23    -0.07   0.03   0.11
  30   6     0.10  -0.03  -0.03    -0.19   0.02  -0.01     0.25   0.40  -0.17
  31   1    -0.08   0.18  -0.18     0.08  -0.23   0.20     0.15  -0.03  -0.08
  32   1    -0.11  -0.16   0.15     0.12   0.20  -0.20     0.18   0.23  -0.16
  33   1     0.32  -0.03  -0.01    -0.41   0.04   0.01    -0.04   0.23   0.02
                     13                     14                     15
                        a                      a                      a 
 Frequencies --   320.9651               369.6786               371.0430
 Red. masses --    10.3041                 6.8482                 7.1863
 Frc consts  --     0.0000                 0.0000                 0.0000
 IR Inten    --     0.1797                39.3459                77.5666
 Raman Activ --     0.0000                 0.0000                 0.0000
 Depolar     --     0.0000                 0.0000                 0.0000
 Atom AN      X      Y      Z        X      Y      Z        X      Y      Z
   1   6    -0.15  -0.18  -0.06     0.04   0.07   0.06    -0.01  -0.04  -0.02
   2   6     0.01  -0.16  -0.02    -0.07  -0.10  -0.12     0.05   0.07   0.08
   3   6     0.16  -0.02   0.15     0.09   0.11   0.12    -0.05  -0.06  -0.09
   4   6     0.17  -0.07   0.13    -0.04  -0.08  -0.06     0.02   0.07   0.02
   5   6     0.05  -0.04   0.17    -0.13  -0.20  -0.19     0.08   0.14   0.09
   6   6    -0.05  -0.17   0.06     0.18   0.23   0.26    -0.11  -0.13  -0.16
   7   1     0.05   0.02   0.07     0.05   0.08   0.08    -0.03  -0.05  -0.06
   8   1    -0.02  -0.05   0.01     0.11   0.14   0.15    -0.07  -0.08  -0.09
   9   1     0.01  -0.08  -0.00    -0.05  -0.07  -0.08     0.03   0.05   0.05
  10   1     0.01   0.01   0.05    -0.07  -0.11  -0.10     0.04   0.07   0.05
  11   6    -0.09   0.02  -0.15     0.00   0.04   0.00     0.01  -0.04   0.02
  12   6    -0.13   0.16  -0.12    -0.02   0.05  -0.06     0.03  -0.05   0.04
  13   6    -0.04   0.13  -0.00     0.05  -0.09   0.07     0.17  -0.22   0.24
  14   6    -0.02   0.13  -0.08    -0.13   0.18  -0.19    -0.12   0.17  -0.19
  15   6     0.06  -0.00   0.14    -0.05   0.06  -0.10    -0.14   0.21  -0.22
  16   1    -0.01   0.04  -0.01     0.03  -0.06   0.05     0.10  -0.13   0.14
  17   6     0.14  -0.06   0.14     0.08  -0.13   0.13     0.10  -0.13   0.14
  18   1    -0.01   0.07  -0.03    -0.07   0.09  -0.11    -0.07   0.11  -0.12
  19   6     0.14   0.00   0.13     0.02  -0.07   0.04    -0.01   0.04  -0.03
  20   1     0.02  -0.02   0.04    -0.04   0.05  -0.06    -0.08   0.12  -0.13
  21   1     0.04  -0.04   0.07     0.05  -0.07   0.07     0.06  -0.09   0.09
  22   8     0.18  -0.14  -0.18     0.00  -0.04  -0.04    -0.02   0.02   0.06
  23   1     0.08  -0.06  -0.07     0.20   0.26   0.27    -0.16  -0.17  -0.17
  24   8     0.10   0.14  -0.14    -0.02  -0.03   0.04     0.09  -0.10   0.12
  25   1    -0.01   0.05  -0.08    -0.14   0.19  -0.20    -0.18   0.26  -0.28
  26   6    -0.29   0.24   0.00    -0.06  -0.06  -0.06     0.03  -0.00   0.05
  27   1    -0.18   0.17   0.07     0.01  -0.05  -0.09     0.00   0.01   0.04
  28   1     0.01   0.14  -0.04    -0.08  -0.05   0.00     0.03   0.02   0.00
  29   1    -0.15  -0.06   0.02     0.01   0.02   0.01     0.00  -0.01   0.00
  30   6    -0.17  -0.03  -0.12     0.04  -0.04   0.06    -0.03   0.04  -0.03
  31   1    -0.08   0.05  -0.05     0.03  -0.04   0.04     0.01  -0.01   0.01
  32   1    -0.09  -0.06  -0.01     0.04   0.01   0.03     0.01   0.03  -0.06
  33   1     0.01  -0.03  -0.04    -0.01  -0.04  -0.00    -0.05   0.04   0.01
                     16                     17                     18
                        a                      a                      a 
 Frequencies --   378.5578               386.8547               396.7167
 Red. masses --     9.9575                10.6204                 5.7809
 Frc consts  --     0.0000                 0.0000                 0.0000
 IR Inten    --     7.3985                 0.3076               169.1929
 Raman Activ --     0.0000                 0.0000                 0.0000
 Depolar     --     0.0000                 0.0000                 0.0000
 Atom AN      X      Y      Z        X      Y      Z        X      Y      Z
   1   6    -0.08  -0.16  -0.14     0.10   0.09  -0.05     0.01  -0.01   0.08
   2   6    -0.18  -0.26  -0.24     0.02   0.17   0.05    -0.04  -0.11  -0.02
   3   6     0.13   0.20   0.18    -0.19  -0.15   0.10     0.09   0.09   0.04
   4   6     0.06   0.17   0.09    -0.16  -0.15   0.13    -0.00   0.03  -0.08
   5   6    -0.01   0.04  -0.05    -0.02  -0.11   0.17    -0.10  -0.09  -0.20
   6   6    -0.02   0.02  -0.02     0.11   0.00  -0.05     0.03   0.11   0.14
   7   1     0.09   0.10   0.09    -0.12  -0.05   0.03     0.08   0.05   0.04
   8   1    -0.00   0.03   0.02     0.06  -0.01  -0.03     0.01   0.07   0.08
   9   1    -0.09  -0.13  -0.13    -0.01   0.11   0.02    -0.02  -0.07  -0.03
  10   1    -0.02  -0.01  -0.04     0.04  -0.08   0.09    -0.06  -0.04  -0.10
  11   6    -0.00  -0.11  -0.00     0.05  -0.01  -0.10     0.01  -0.03   0.00
  12   6     0.08  -0.16   0.14     0.10  -0.11  -0.02     0.03  -0.05  -0.08
  13   6     0.11  -0.11   0.16     0.12  -0.04   0.01    -0.00   0.10  -0.16
  14   6     0.10  -0.15   0.12    -0.00  -0.14   0.04     0.03  -0.13   0.00
  15   6    -0.07   0.15  -0.07    -0.07   0.16   0.13     0.06  -0.02   0.19
  16   1     0.06  -0.05   0.07     0.07  -0.01  -0.00     0.00   0.08  -0.09
  17   6    -0.05   0.08  -0.07    -0.19   0.13   0.09    -0.15   0.12  -0.03
  18   1     0.04  -0.06   0.06    -0.01  -0.09   0.01     0.00  -0.07   0.00
  19   6    -0.06   0.18  -0.11    -0.16   0.17   0.11    -0.02   0.04   0.13
  20   1    -0.03   0.05  -0.03     0.01   0.09   0.06     0.05  -0.00   0.09
  21   1    -0.03   0.02  -0.01    -0.11   0.03   0.04    -0.11   0.06  -0.03
  22   8    -0.17  -0.11  -0.07     0.08   0.22  -0.28     0.03   0.08   0.21
  23   1     0.00   0.08   0.09     0.24   0.12   0.02    -0.30  -0.33  -0.32
  24   8     0.15  -0.06   0.04     0.20  -0.24  -0.19     0.14  -0.14  -0.06
  25   1     0.06  -0.08   0.05    -0.09  -0.09  -0.19    -0.22   0.19  -0.35
  26   6     0.12   0.11   0.16    -0.01   0.10  -0.03    -0.02   0.01   0.04
  27   1     0.06   0.01   0.13    -0.00   0.03   0.01    -0.00  -0.00   0.00
  28   1     0.04   0.11   0.00    -0.01   0.06  -0.03    -0.03   0.01   0.00
  29   1     0.05   0.06   0.07    -0.00   0.02   0.02     0.00   0.01   0.04
  30   6    -0.13   0.12  -0.17    -0.03  -0.08  -0.06     0.02   0.02  -0.03
  31   1    -0.04   0.04  -0.05    -0.01  -0.02   0.01     0.00   0.01  -0.03
  32   1    -0.04   0.03  -0.15    -0.01  -0.03  -0.01     0.00   0.00  -0.00
  33   1    -0.08   0.11   0.00    -0.02  -0.04  -0.03     0.03   0.02  -0.00
                     19                     20                     21
                        a                      a                      a 
 Frequencies --   398.5259               403.8591               450.8891
 Red. masses --     5.5393                 8.9936                10.2685
 Frc consts  --     0.0000                 0.0000                 0.0000
 IR Inten    --   105.7820                33.6113                 5.6773
 Raman Activ --     0.0000                 0.0000                 0.0000
 Depolar     --     0.0000                 0.0000                 0.0000
 Atom AN      X      Y      Z        X      Y      Z        X      Y      Z
   1   6     0.05   0.08  -0.04     0.01   0.05  -0.15     0.13   0.05  -0.04
   2   6    -0.06  -0.00  -0.12    -0.07   0.02  -0.18    -0.09  -0.08  -0.20
   3   6    -0.02   0.04   0.17    -0.06   0.02   0.16    -0.03   0.02   0.10
   4   6    -0.06  -0.09   0.10    -0.01  -0.05   0.21     0.04   0.18   0.24
   5   6    -0.10  -0.22  -0.04     0.00  -0.12   0.13     0.06   0.01   0.05
   6   6     0.14   0.09   0.06     0.08  -0.04  -0.11     0.02  -0.07  -0.23
   7   1    -0.02   0.05   0.09    -0.07   0.03   0.07    -0.05  -0.02   0.00
   8   1     0.09   0.04   0.03     0.06  -0.03  -0.06    -0.01  -0.07  -0.12
   9   1    -0.05  -0.00  -0.07    -0.05   0.02  -0.09    -0.08  -0.04  -0.13
  10   1    -0.03  -0.13  -0.03     0.02  -0.08   0.05     0.01  -0.07  -0.00
  11   6     0.02   0.05  -0.03     0.01   0.07   0.01     0.12  -0.02   0.24
  12   6     0.01   0.03   0.03    -0.01   0.07   0.17     0.12  -0.06  -0.04
  13   6     0.05  -0.11   0.12    -0.13   0.03   0.04     0.00   0.09  -0.24
  14   6    -0.05   0.08  -0.03     0.09   0.03   0.21    -0.09   0.09  -0.21
  15   6    -0.08   0.08  -0.13     0.06  -0.19  -0.09     0.04  -0.00   0.06
  16   1     0.03  -0.07   0.08    -0.10   0.01   0.01    -0.02   0.08  -0.13
  17   6     0.07  -0.09   0.11     0.04   0.08  -0.23    -0.03  -0.03   0.11
  18   1    -0.02   0.04  -0.02     0.06   0.02   0.10    -0.08   0.05  -0.14
  19   6    -0.04   0.01  -0.05     0.04  -0.11  -0.19     0.06  -0.18   0.26
  20   1    -0.04   0.04  -0.06     0.01  -0.11  -0.03     0.01   0.07  -0.01
  21   1     0.06  -0.06   0.06     0.06   0.07  -0.12    -0.05   0.02   0.00
  22   8     0.17   0.22  -0.04     0.09   0.10  -0.22    -0.12   0.01  -0.14
  23   1    -0.14  -0.34  -0.41     0.09  -0.06  -0.13     0.02   0.01  -0.02
  24   8    -0.09   0.06  -0.06    -0.12   0.01   0.33    -0.09   0.01  -0.16
  25   1     0.21  -0.29   0.33    -0.16   0.38  -0.18    -0.02  -0.07  -0.01
  26   6    -0.01   0.01  -0.06     0.03  -0.01  -0.05     0.01  -0.22   0.19
  27   1     0.00  -0.00  -0.04     0.01  -0.01  -0.02    -0.02  -0.04  -0.00
  28   1    -0.01  -0.01  -0.01     0.04  -0.03   0.00     0.00  -0.11   0.09
  29   1     0.00   0.01  -0.02     0.01  -0.01  -0.06    -0.01  -0.09   0.03
  30   6    -0.01  -0.03   0.03    -0.04   0.01   0.07     0.00   0.21   0.17
  31   1     0.01  -0.02   0.04    -0.02   0.01   0.06    -0.02   0.09   0.02
  32   1     0.01   0.00   0.01    -0.02  -0.01   0.02    -0.02   0.04  -0.02
  33   1    -0.03  -0.03  -0.01    -0.03  -0.02   0.00     0.00   0.12   0.09
                     22                     23                     24
                        a                      a                      a 
 Frequencies --   474.2275               513.6591               539.0853
 Red. masses --     9.9901                10.9499                 8.9353
 Frc consts  --     0.0000                 0.0000                 0.0000
 IR Inten    --     1.8957                 4.0627                 4.1371
 Raman Activ --     0.0000                 0.0000                 0.0000
 Depolar     --     0.0000                 0.0000                 0.0000
 Atom AN      X      Y      Z        X      Y      Z        X      Y      Z
   1   6     0.08  -0.14  -0.17    -0.21   0.17  -0.12    -0.06  -0.24  -0.24
   2   6     0.09   0.10   0.08     0.01   0.18  -0.17     0.02  -0.04  -0.02
   3   6    -0.06  -0.05   0.06    -0.02   0.11  -0.07     0.05   0.03   0.11
   4   6    -0.24  -0.13  -0.15     0.10  -0.17   0.00    -0.20  -0.18  -0.21
   5   6     0.04  -0.01  -0.04    -0.10  -0.05   0.13     0.10   0.07   0.04
   6   6     0.17   0.14  -0.03    -0.07   0.05   0.01     0.06  -0.01  -0.09
   7   1     0.03   0.04   0.07    -0.07   0.07   0.03     0.10   0.11   0.14
   8   1     0.09   0.10   0.05     0.06   0.01  -0.01     0.07   0.09   0.07
   9   1     0.04   0.13   0.06     0.02   0.05  -0.03     0.05   0.10   0.07
  10   1     0.08   0.00   0.07    -0.03   0.03   0.04     0.12   0.10   0.14
  11   6    -0.00  -0.31  -0.01    -0.32   0.00   0.16     0.10   0.00   0.15
  12   6    -0.09  -0.13   0.17    -0.20  -0.17  -0.11    -0.05   0.24  -0.24
  13   6    -0.17   0.13   0.04    -0.07  -0.05   0.01     0.06   0.01  -0.09
  14   6    -0.08   0.10  -0.06     0.02  -0.18  -0.17     0.02   0.03  -0.02
  15   6    -0.03  -0.02   0.02    -0.09   0.04   0.12     0.10  -0.07   0.05
  16   1    -0.09   0.09  -0.04     0.06  -0.01  -0.01     0.07  -0.09   0.07
  17   6     0.07  -0.05  -0.07    -0.01  -0.11  -0.09     0.04  -0.02   0.12
  18   1    -0.03   0.12  -0.05     0.02  -0.05  -0.02     0.05  -0.10   0.08
  19   6     0.23  -0.12   0.13     0.11   0.16  -0.00    -0.20   0.18  -0.21
  20   1    -0.07  -0.01  -0.07    -0.03  -0.03   0.03     0.12  -0.10   0.14
  21   1    -0.02   0.03  -0.07    -0.07  -0.07   0.02     0.09  -0.11   0.14
  22   8    -0.08   0.19   0.04     0.25  -0.15  -0.00    -0.05   0.10   0.04
  23   1    -0.01   0.02  -0.01     0.07  -0.05  -0.01    -0.02   0.01  -0.01
  24   8     0.07   0.19  -0.02     0.24   0.17   0.02    -0.04  -0.11   0.04
  25   1     0.04   0.06   0.02     0.05   0.04  -0.01    -0.03  -0.01  -0.01
  26   6     0.05  -0.06   0.25     0.07  -0.13   0.11    -0.03  -0.14   0.14
  27   1     0.04  -0.04   0.16     0.08  -0.09   0.08    -0.04  -0.01  -0.04
  28   1     0.01   0.08   0.01     0.09  -0.08   0.06    -0.03  -0.09   0.07
  29   1     0.03   0.01   0.12     0.05   0.03  -0.10    -0.03  -0.07   0.04
  30   6    -0.06  -0.07  -0.26     0.07   0.13   0.12    -0.03   0.14   0.15
  31   1    -0.03   0.01  -0.12     0.05  -0.03  -0.09    -0.03   0.07   0.05
  32   1    -0.04  -0.04  -0.16     0.07   0.09   0.08    -0.03   0.01  -0.03
  33   1    -0.01   0.08  -0.01     0.08   0.08   0.07    -0.03   0.09   0.07
                     25                     26                     27
                        a                      a                      a 
 Frequencies --   545.4654               611.6157               612.6385
 Red. masses --     9.2950                11.4496                11.4085
 Frc consts  --     0.0000                 0.0000                 0.0000
 IR Inten    --     1.9554                 1.6039                 1.2574
 Raman Activ --     0.0000                 0.0000                 0.0000
 Depolar     --     0.0000                 0.0000                 0.0000
 Atom AN      X      Y      Z        X      Y      Z        X      Y      Z
   1   6    -0.25  -0.14  -0.17     0.01   0.07  -0.06    -0.04  -0.01   0.04
   2   6    -0.07  -0.00  -0.04     0.34  -0.05  -0.17    -0.25   0.07   0.09
   3   6     0.05   0.13   0.02     0.16  -0.26   0.13    -0.12   0.22  -0.11
   4   6    -0.07  -0.24  -0.23    -0.01  -0.05   0.06     0.03   0.00  -0.05
   5   6    -0.01   0.08   0.13    -0.38   0.09   0.16     0.21  -0.05  -0.08
   6   6    -0.12  -0.06   0.04    -0.20   0.32  -0.17     0.09  -0.20   0.12
   7   1     0.08   0.15   0.12     0.01  -0.06   0.05    -0.02   0.06  -0.03
   8   1     0.03   0.06   0.10    -0.02   0.08  -0.06     0.01  -0.05   0.04
   9   1     0.06   0.06   0.10     0.08   0.00  -0.06    -0.06   0.00   0.04
  10   1     0.05   0.16   0.13    -0.10   0.02   0.05     0.05   0.01  -0.03
  11   6     0.00   0.17  -0.00     0.01  -0.01  -0.01     0.00   0.01   0.02
  12   6     0.26  -0.14   0.18     0.02   0.06   0.04    -0.04   0.04   0.06
  13   6     0.13  -0.06  -0.05     0.15   0.22   0.10     0.16   0.31   0.18
  14   6     0.07   0.00   0.03    -0.22  -0.02   0.12    -0.37  -0.09   0.15
  15   6     0.00   0.08  -0.12     0.26   0.06  -0.11     0.33   0.09  -0.13
  16   1    -0.03   0.06  -0.10     0.01   0.05   0.04     0.02   0.08   0.06
  17   6    -0.06   0.14  -0.00    -0.10  -0.15  -0.07    -0.18  -0.31  -0.17
  18   1    -0.06   0.06  -0.10    -0.05   0.00   0.04    -0.09  -0.00   0.05
  19   6     0.06  -0.24   0.23    -0.01  -0.04  -0.04     0.04  -0.03  -0.06
  20   1    -0.05   0.16  -0.13     0.07   0.01  -0.03     0.08  -0.00  -0.04
  21   1    -0.07   0.15  -0.12     0.00  -0.04  -0.03    -0.03  -0.08  -0.05
  22   8     0.14  -0.04   0.04    -0.01  -0.10   0.10     0.06   0.03  -0.07
  23   1     0.02  -0.02   0.00    -0.04  -0.01   0.04     0.04  -0.00  -0.03
  24   8    -0.13  -0.05  -0.06    -0.01  -0.08  -0.07     0.08  -0.05  -0.10
  25   1    -0.02  -0.04   0.01    -0.02  -0.04  -0.02    -0.00  -0.05  -0.04
  26   6     0.02   0.08  -0.14     0.01   0.00  -0.01    -0.00  -0.02   0.04
  27   1     0.02   0.01  -0.07     0.00   0.00  -0.00    -0.00  -0.01   0.01
  28   1     0.01  -0.02  -0.01    -0.00   0.00  -0.00     0.01  -0.02   0.02
  29   1     0.01   0.04  -0.08     0.00   0.00   0.01    -0.00  -0.01   0.00
  30   6    -0.02   0.07   0.14    -0.01  -0.01  -0.02    -0.01   0.03   0.06
  31   1    -0.01   0.04   0.08    -0.00  -0.00  -0.00    -0.00   0.01   0.01
  32   1    -0.02   0.00   0.07    -0.00  -0.01  -0.01    -0.00   0.01   0.02
  33   1    -0.01  -0.03   0.01    -0.00  -0.01  -0.01     0.01   0.02   0.02
                     28                     29                     30
                        a                      a                      a 
 Frequencies --   650.9047               683.4919               695.2770
 Red. masses --    11.1741                11.3455                11.1522
 Frc consts  --     0.0000                 0.0000                 0.0000
 IR Inten    --     7.7595                 9.4482                 2.2888
 Raman Activ --     0.0000                 0.0000                 0.0000
 Depolar     --     0.0000                 0.0000                 0.0000
 Atom AN      X      Y      Z        X      Y      Z        X      Y      Z
   1   6    -0.16   0.03  -0.06    -0.17  -0.25  -0.27     0.18   0.27   0.26
   2   6    -0.12   0.21   0.02     0.11   0.12   0.13    -0.11  -0.06  -0.12
   3   6    -0.14   0.17  -0.18    -0.09  -0.15  -0.13     0.06   0.18   0.11
   4   6     0.15   0.00   0.08     0.14   0.22   0.22    -0.12  -0.22  -0.21
   5   6    -0.17  -0.04   0.04    -0.06  -0.13  -0.15     0.05   0.12   0.14
   6   6    -0.10   0.08   0.12     0.12   0.12   0.11    -0.09  -0.08  -0.12
   7   1    -0.11   0.04  -0.05    -0.02  -0.04  -0.03    -0.02   0.03   0.01
   8   1    -0.02   0.00   0.02     0.05   0.06   0.06    -0.05  -0.06  -0.08
   9   1    -0.03   0.04   0.00     0.04   0.07   0.06    -0.07  -0.06  -0.09
  10   1    -0.10   0.02  -0.04    -0.01  -0.05  -0.04    -0.00   0.02   0.01
  11   6     0.00  -0.19  -0.00    -0.02  -0.00   0.05     0.00  -0.09  -0.00
  12   6     0.16   0.03   0.06    -0.16   0.26  -0.27    -0.17   0.26  -0.27
  13   6     0.11   0.10  -0.12     0.12  -0.11   0.12     0.09  -0.07   0.12
  14   6     0.10   0.21  -0.01     0.11  -0.12   0.13     0.11  -0.06   0.12
  15   6     0.19  -0.03  -0.03    -0.05   0.14  -0.16    -0.06   0.13  -0.14
  16   1     0.02   0.01  -0.01     0.05  -0.06   0.06     0.05  -0.07   0.08
  17   6     0.12   0.16   0.18    -0.09   0.15  -0.12    -0.06   0.17  -0.10
  18   1     0.03   0.03   0.00     0.04  -0.07   0.06     0.06  -0.06   0.09
  19   6    -0.16   0.01  -0.08     0.14  -0.22   0.23     0.12  -0.21   0.21
  20   1     0.10   0.02   0.04    -0.01   0.04  -0.03     0.01   0.01  -0.01
  21   1     0.11   0.04   0.05    -0.02   0.04  -0.04     0.02   0.03  -0.01
  22   8     0.22  -0.16  -0.02    -0.05  -0.01  -0.03     0.07  -0.01   0.03
  23   1     0.06  -0.04  -0.01    -0.00   0.00  -0.00     0.02  -0.01   0.00
  24   8    -0.21  -0.17   0.00    -0.05   0.00  -0.04    -0.07  -0.01  -0.03
  25   1    -0.05  -0.03   0.00    -0.01  -0.01  -0.00    -0.01  -0.00  -0.00
  26   6     0.03  -0.18   0.23    -0.01  -0.05   0.07     0.00  -0.11   0.14
  27   1     0.02  -0.06   0.12    -0.01  -0.01  -0.02    -0.02  -0.01   0.04
  28   1     0.01   0.00   0.03    -0.00  -0.05   0.04    -0.01  -0.01   0.03
  29   1     0.02  -0.04   0.09    -0.01  -0.02   0.00    -0.01  -0.05   0.07
  30   6    -0.03  -0.17  -0.23    -0.01   0.05   0.07     0.00  -0.11  -0.14
  31   1    -0.01  -0.04  -0.09    -0.01   0.02   0.00     0.01  -0.05  -0.07
  32   1    -0.02  -0.06  -0.12    -0.01   0.01  -0.02     0.02  -0.01  -0.05
  33   1    -0.01   0.00  -0.03    -0.00   0.05   0.04     0.01  -0.01  -0.03
                     31                     32                     33
                        a                      a                      a 
 Frequencies --   764.5176               806.9851               809.0392
 Red. masses --    10.0109                 5.1569                 5.3229
 Frc consts  --     0.0000                 0.0000                 0.0000
 IR Inten    --    35.5630                53.7804                24.3627
 Raman Activ --     0.0000                 0.0000                 0.0000
 Depolar     --     0.0000                 0.0000                 0.0000
 Atom AN      X      Y      Z        X      Y      Z        X      Y      Z
   1   6    -0.07   0.07   0.01     0.08   0.16   0.15    -0.10  -0.14  -0.15
   2   6     0.18  -0.04  -0.07    -0.04  -0.09  -0.11     0.06   0.07   0.09
   3   6     0.13  -0.10   0.05    -0.07  -0.13  -0.14     0.08   0.10   0.11
   4   6    -0.07   0.00  -0.03     0.09   0.13   0.14    -0.08  -0.11  -0.12
   5   6     0.19  -0.07  -0.02    -0.06  -0.11  -0.09     0.05   0.08   0.08
   6   6     0.13  -0.15   0.08    -0.06  -0.13  -0.07     0.06   0.08   0.10
   7   1     0.04  -0.06  -0.03     0.17   0.23   0.24    -0.14  -0.20  -0.21
   8   1     0.05  -0.08  -0.03     0.11   0.14   0.17    -0.10  -0.13  -0.14
   9   1     0.05  -0.06  -0.03     0.12   0.14   0.16    -0.09  -0.13  -0.13
  10   1     0.05  -0.08  -0.02     0.13   0.18   0.19    -0.11  -0.15  -0.16
  11   6    -0.47  -0.00   0.04    -0.05  -0.00  -0.00    -0.00  -0.01  -0.00
  12   6    -0.06  -0.07   0.01     0.06  -0.13   0.12     0.11  -0.15   0.17
  13   6     0.13   0.15   0.08    -0.07   0.12  -0.07    -0.07   0.11  -0.13
  14   6     0.18   0.04  -0.07    -0.02   0.07  -0.09    -0.05   0.07  -0.09
  15   6     0.20   0.08  -0.02    -0.07   0.12  -0.11    -0.08   0.12  -0.13
  16   1     0.06   0.09  -0.03     0.11  -0.15   0.17     0.13  -0.18   0.19
  17   6     0.11   0.10   0.06    -0.04   0.08  -0.09    -0.06   0.08  -0.09
  18   1     0.05   0.06  -0.03     0.09  -0.10   0.12     0.08  -0.12   0.13
  19   6    -0.07  -0.01  -0.03     0.08  -0.11   0.12     0.09  -0.12   0.13
  20   1     0.05   0.08  -0.02     0.15  -0.21   0.23     0.17  -0.24   0.26
  21   1     0.04   0.06  -0.02     0.11  -0.14   0.15     0.11  -0.16   0.17
  22   8    -0.23   0.18  -0.00    -0.05  -0.01  -0.03     0.01   0.03   0.03
  23   1    -0.05   0.04  -0.00    -0.01   0.00  -0.01     0.00   0.00   0.00
  24   8    -0.23  -0.19  -0.01    -0.05   0.00  -0.03    -0.02   0.03  -0.03
  25   1    -0.05  -0.04  -0.00    -0.01   0.00  -0.01    -0.01   0.01  -0.01
  26   6    -0.10   0.00  -0.00    -0.01   0.03  -0.04    -0.01   0.06  -0.08
  27   1     0.08  -0.11   0.13     0.02  -0.01   0.02     0.01  -0.00   0.01
  28   1     0.08  -0.01   0.01     0.01   0.02  -0.02     0.01   0.02  -0.03
  29   1     0.04   0.12  -0.16     0.01   0.04  -0.02     0.01   0.03  -0.04
  30   6    -0.10  -0.00   0.00    -0.01  -0.04  -0.05     0.01   0.05   0.07
  31   1     0.04  -0.12  -0.17     0.01  -0.04  -0.03    -0.00   0.02   0.04
  32   1     0.08   0.11   0.14     0.02   0.01   0.02    -0.01   0.00  -0.01
  33   1     0.08   0.01   0.01     0.01  -0.02  -0.02    -0.01   0.02   0.02
                     34                     35                     36
                        a                      a                      a 
 Frequencies --   838.6359               860.6014               864.0087
 Red. masses --    11.9594                 3.4901                 4.1385
 Frc consts  --     0.0000                 0.0000                 0.0000
 IR Inten    --    34.2168                 1.1163                 1.2379
 Raman Activ --     0.0000                 0.0000                 0.0000
 Depolar     --     0.0000                 0.0000                 0.0000
 Atom AN      X      Y      Z        X      Y      Z        X      Y      Z
   1   6     0.14  -0.10   0.01    -0.01   0.01   0.01    -0.02   0.02   0.00
   2   6    -0.23  -0.07   0.23     0.09   0.09   0.05     0.05   0.02  -0.08
   3   6    -0.13  -0.06   0.13     0.14   0.19   0.15     0.02   0.03  -0.07
   4   6    -0.02   0.02  -0.00     0.02   0.02   0.02     0.01  -0.01  -0.00
   5   6     0.02   0.12  -0.14    -0.13  -0.17  -0.14    -0.02  -0.02   0.08
   6   6     0.01   0.24  -0.24    -0.10  -0.17  -0.11    -0.01  -0.05   0.08
   7   1     0.00  -0.02   0.03    -0.24  -0.32  -0.35     0.01   0.04   0.01
   8   1    -0.05   0.09  -0.04     0.20   0.26   0.30    -0.00  -0.04  -0.01
   9   1    -0.11   0.04   0.03    -0.09  -0.16  -0.17     0.04   0.01   0.01
  10   1     0.04   0.01  -0.01     0.20   0.30   0.31    -0.04  -0.03  -0.03
  11   6     0.00  -0.06  -0.00     0.03   0.01  -0.00     0.09  -0.00  -0.01
  12   6    -0.14  -0.10  -0.01    -0.01  -0.01   0.00    -0.05   0.01  -0.03
  13   6    -0.02   0.24   0.24    -0.01   0.03   0.03    -0.08   0.14  -0.01
  14   6     0.23  -0.07  -0.22     0.03  -0.02  -0.02     0.15  -0.15   0.06
  15   6    -0.03   0.12   0.14    -0.02   0.02   0.02    -0.13   0.17  -0.08
  16   1     0.05   0.09   0.04     0.01   0.00   0.02     0.12  -0.14   0.19
  17   6     0.13  -0.06  -0.13     0.02  -0.03  -0.02     0.16  -0.22   0.13
  18   1     0.11   0.04  -0.02     0.01   0.01  -0.01    -0.14   0.25  -0.27
  19   6     0.02   0.02  -0.00     0.00   0.01  -0.00    -0.01   0.04  -0.03
  20   1    -0.04   0.01   0.02    -0.00  -0.01   0.01     0.16  -0.26   0.29
  21   1    -0.01  -0.03  -0.03    -0.02   0.01  -0.02    -0.25   0.32  -0.37
  22   8     0.26  -0.20   0.01    -0.04   0.02  -0.00    -0.06   0.05  -0.00
  23   1     0.06  -0.04   0.00    -0.01  -0.00  -0.01    -0.01   0.01   0.00
  24   8    -0.26  -0.20  -0.01    -0.03  -0.02  -0.00    -0.06  -0.06   0.01
  25   1    -0.06  -0.04  -0.00    -0.01  -0.01  -0.00    -0.02  -0.02   0.00
  26   6     0.00   0.06  -0.12     0.01  -0.00   0.01     0.03  -0.02   0.01
  27   1    -0.00   0.02  -0.02    -0.01   0.01  -0.02    -0.02   0.03  -0.04
  28   1    -0.01   0.04  -0.05    -0.01  -0.00   0.00    -0.02   0.01  -0.01
  29   1     0.00   0.02  -0.02     0.00  -0.01   0.03    -0.01  -0.04   0.05
  30   6    -0.00   0.06   0.12     0.01   0.00  -0.01     0.03   0.00   0.01
  31   1    -0.00   0.02   0.02    -0.00   0.01   0.02    -0.01   0.03   0.05
  32   1     0.00   0.02   0.02    -0.01  -0.01  -0.01    -0.02  -0.03  -0.04
  33   1     0.01   0.04   0.05    -0.01  -0.01  -0.01    -0.02  -0.00  -0.00
                     37                     38                     39
                        a                      a                      a 
 Frequencies --   864.8657               900.3094               904.7700
 Red. masses --     9.7011                 2.9110                 2.6910
 Frc consts  --     0.0000                 0.0000                 0.0000
 IR Inten    --    19.2144                 0.1111                 0.1062
 Raman Activ --     0.0000                 0.0000                 0.0000
 Depolar     --     0.0000                 0.0000                 0.0000
 Atom AN      X      Y      Z        X      Y      Z        X      Y      Z
   1   6    -0.08   0.04  -0.02     0.00  -0.00  -0.00     0.00   0.00   0.00
   2   6     0.16   0.08  -0.20    -0.02  -0.02  -0.02    -0.09  -0.13  -0.13
   3   6     0.07   0.10  -0.19     0.01   0.01   0.02     0.05   0.06   0.08
   4   6     0.03  -0.04  -0.00     0.00   0.00   0.00     0.01   0.02   0.02
   5   6    -0.09  -0.08   0.20     0.01   0.02   0.02     0.10   0.14   0.13
   6   6    -0.04  -0.17   0.23    -0.01  -0.01  -0.02    -0.09  -0.12  -0.14
   7   1    -0.00   0.08  -0.00    -0.03  -0.04  -0.04    -0.14  -0.19  -0.19
   8   1     0.00  -0.10   0.01     0.02   0.04   0.04     0.20   0.30   0.31
   9   1     0.09  -0.01  -0.01     0.04   0.05   0.06     0.22   0.31   0.34
  10   1    -0.09  -0.03  -0.02    -0.03  -0.04  -0.04    -0.22  -0.31  -0.32
  11   6     0.26   0.00  -0.03     0.01   0.01  -0.01    -0.01   0.01   0.01
  12   6    -0.07  -0.05   0.00    -0.00   0.00   0.00    -0.00  -0.00  -0.00
  13   6    -0.03   0.15   0.23     0.14  -0.20   0.21    -0.02   0.04  -0.03
  14   6     0.14  -0.04  -0.24     0.03  -0.04   0.03     0.00  -0.00   0.00
  15   6    -0.08   0.04   0.23    -0.11   0.15  -0.15     0.02  -0.02   0.03
  16   1    -0.02   0.12  -0.02    -0.28   0.41  -0.44     0.04  -0.06   0.07
  17   6     0.04  -0.06  -0.23    -0.03   0.03  -0.06    -0.00   0.01  -0.00
  18   1     0.14  -0.06   0.06    -0.10   0.14  -0.16     0.00  -0.01   0.01
  19   6     0.04   0.02   0.01    -0.01   0.02  -0.02     0.00  -0.00   0.00
  20   1    -0.13   0.10  -0.08     0.21  -0.31   0.33    -0.04   0.05  -0.06
  21   1     0.05  -0.16   0.09     0.11  -0.16   0.16    -0.00   0.00  -0.00
  22   8    -0.19   0.14  -0.01     0.00  -0.00   0.00     0.01   0.00   0.01
  23   1    -0.04   0.03  -0.00     0.00  -0.00  -0.00     0.00  -0.01  -0.01
  24   8    -0.19  -0.14  -0.01    -0.01   0.00  -0.00    -0.00  -0.00  -0.00
  25   1    -0.04  -0.03  -0.00    -0.00  -0.00  -0.00     0.00   0.00   0.00
  26   6     0.08  -0.00   0.00     0.01  -0.02   0.03    -0.00   0.02  -0.00
  27   1    -0.06   0.08  -0.10    -0.00   0.00  -0.00     0.00   0.00  -0.02
  28   1    -0.05   0.01  -0.01    -0.00  -0.00   0.00     0.00  -0.02   0.01
  29   1    -0.03  -0.10   0.12    -0.00  -0.01   0.02     0.00   0.01  -0.01
  30   6     0.08   0.01   0.00     0.00   0.01  -0.01    -0.01  -0.03  -0.02
  31   1    -0.03   0.10   0.13    -0.01   0.01  -0.00     0.00  -0.02  -0.02
  32   1    -0.06  -0.08  -0.10    -0.00  -0.00   0.02     0.00  -0.00  -0.01
  33   1    -0.05  -0.02  -0.01     0.00  -0.02  -0.02     0.01   0.01   0.01
                     40                     41                     42
                        a                      a                      a 
 Frequencies --   920.0604               924.8009               955.9583
 Red. masses --     3.9168                 3.6406                 7.9824
 Frc consts  --     0.0000                 0.0000                 0.0000
 IR Inten    --     0.2198                 0.0774                 0.0900
 Raman Activ --     0.0000                 0.0000                 0.0000
 Depolar     --     0.0000                 0.0000                 0.0000
 Atom AN      X      Y      Z        X      Y      Z        X      Y      Z
   1   6     0.01   0.01   0.02    -0.01  -0.00  -0.00    -0.11   0.02  -0.06
   2   6    -0.14  -0.20  -0.21    -0.02  -0.03  -0.03    -0.01  -0.02   0.03
   3   6     0.09   0.13   0.13     0.01   0.01   0.02    -0.00  -0.13   0.14
   4   6     0.01   0.01   0.01     0.00   0.00   0.00    -0.03   0.03  -0.01
   5   6    -0.09  -0.13  -0.13    -0.00  -0.01  -0.01     0.10   0.05  -0.12
   6   6     0.12   0.17   0.18     0.01   0.01   0.02     0.01   0.03   0.01
   7   1    -0.15  -0.19  -0.21    -0.02  -0.03  -0.03     0.00  -0.05   0.02
   8   1    -0.20  -0.28  -0.30    -0.01  -0.02  -0.02    -0.04  -0.02  -0.03
   9   1     0.24   0.34   0.37     0.04   0.05   0.05    -0.00  -0.00   0.01
  10   1     0.15   0.21   0.22     0.00   0.01   0.01     0.03   0.01  -0.03
  11   6     0.00  -0.02   0.00     0.00   0.01   0.01    -0.00   0.42   0.00
  12   6    -0.01   0.00  -0.01     0.01  -0.00   0.01     0.11   0.02   0.06
  13   6    -0.01   0.02  -0.01     0.07  -0.11   0.11    -0.01   0.03  -0.01
  14   6     0.01  -0.02   0.02    -0.15   0.22  -0.23     0.01  -0.02  -0.04
  15   6     0.01  -0.01   0.01    -0.05   0.07  -0.08    -0.10   0.05   0.11
  16   1     0.01  -0.02   0.02    -0.10   0.14  -0.15     0.03  -0.02   0.03
  17   6    -0.01   0.02  -0.01     0.11  -0.16   0.17     0.01  -0.13  -0.14
  18   1    -0.03   0.04  -0.04     0.29  -0.41   0.45     0.01  -0.00  -0.01
  19   6     0.00   0.00  -0.00     0.01  -0.01   0.01     0.03   0.03   0.01
  20   1    -0.01   0.02  -0.02     0.06  -0.08   0.09    -0.03   0.02   0.03
  21   1     0.02  -0.03   0.03    -0.21   0.29  -0.31    -0.01  -0.06  -0.02
  22   8    -0.00  -0.01  -0.00    -0.00   0.00   0.00     0.05  -0.04   0.00
  23   1     0.01   0.00   0.00     0.00  -0.00  -0.00     0.01  -0.01   0.00
  24   8    -0.00  -0.00  -0.00     0.01  -0.00   0.01    -0.05  -0.03  -0.00
  25   1     0.00   0.00   0.00    -0.00   0.00  -0.01    -0.02  -0.02  -0.00
  26   6     0.00   0.00  -0.02    -0.00   0.03   0.00     0.04  -0.03   0.37
  27   1    -0.00   0.00   0.01     0.00   0.01  -0.01    -0.00  -0.00  -0.11
  28   1    -0.00   0.01  -0.01     0.00  -0.03   0.02     0.03  -0.28   0.27
  29   1    -0.00  -0.01  -0.01    -0.00   0.01  -0.02    -0.02  -0.05  -0.06
  30   6     0.00  -0.01   0.01     0.00  -0.02  -0.02    -0.04  -0.02  -0.37
  31   1    -0.00  -0.00  -0.01    -0.00   0.00  -0.01     0.02  -0.05   0.06
  32   1     0.00  -0.00  -0.01    -0.00  -0.01  -0.01     0.00  -0.00   0.12
  33   1     0.00   0.02   0.02    -0.00   0.00   0.00    -0.03  -0.28  -0.28
                     43                     44                     45
                        a                      a                      a 
 Frequencies --   961.3503              1005.4869              1010.0345
 Red. masses --     4.2261                 9.0666                 7.8404
 Frc consts  --     0.0000                 0.0000                 0.0000
 IR Inten    --     1.9607                46.2867                 9.2027
 Raman Activ --     0.0000                 0.0000                 0.0000
 Depolar     --     0.0000                 0.0000                 0.0000
 Atom AN      X      Y      Z        X      Y      Z        X      Y      Z
   1   6     0.02   0.01   0.01     0.12  -0.10  -0.01     0.09  -0.05  -0.00
   2   6     0.01   0.00   0.01    -0.11  -0.11   0.18    -0.11  -0.11   0.18
   3   6    -0.00   0.01  -0.01     0.09   0.20  -0.25     0.09   0.15  -0.20
   4   6     0.00  -0.00  -0.01     0.08  -0.06   0.00     0.06  -0.04  -0.00
   5   6    -0.01  -0.01   0.01    -0.17  -0.13   0.25    -0.15  -0.11   0.21
   6   6    -0.00  -0.01   0.01     0.08   0.13  -0.17     0.07   0.11  -0.16
   7   1     0.01   0.01   0.01     0.14   0.01  -0.12     0.15  -0.00  -0.11
   8   1    -0.00  -0.02  -0.01     0.14   0.00  -0.09     0.13  -0.00  -0.08
   9   1    -0.02  -0.02  -0.03     0.03  -0.12   0.09     0.03  -0.11   0.10
  10   1     0.00   0.01   0.01     0.01  -0.14   0.12     0.02  -0.13   0.11
  11   6     0.01   0.00   0.23    -0.02   0.00   0.01    -0.00   0.09   0.00
  12   6     0.02  -0.01   0.01     0.11   0.10  -0.01    -0.10  -0.05   0.00
  13   6    -0.01   0.01   0.01     0.08  -0.12  -0.17    -0.08   0.12   0.16
  14   6     0.01  -0.01   0.01    -0.11   0.10   0.17     0.12  -0.11  -0.18
  15   6    -0.01   0.01   0.01    -0.17   0.13   0.24     0.16  -0.12  -0.21
  16   1    -0.00   0.01  -0.01     0.14   0.00  -0.08    -0.14  -0.00   0.08
  17   6    -0.00  -0.01  -0.02     0.09  -0.19  -0.24    -0.10   0.15   0.20
  18   1    -0.02   0.02  -0.03     0.03   0.11   0.09    -0.03  -0.11  -0.10
  19   6     0.00   0.00  -0.01     0.07   0.05   0.00    -0.06  -0.04   0.00
  20   1     0.00  -0.01   0.01     0.01   0.13   0.11    -0.02  -0.13  -0.10
  21   1     0.01  -0.02   0.01     0.14  -0.01  -0.11    -0.17  -0.00   0.11
  22   8    -0.00   0.00  -0.00    -0.08   0.06  -0.00    -0.06   0.05  -0.01
  23   1    -0.01   0.00   0.00    -0.03   0.02   0.00    -0.04   0.02   0.01
  24   8    -0.01  -0.00  -0.00    -0.08  -0.06  -0.00     0.07   0.06   0.00
  25   1    -0.00  -0.00   0.00    -0.02  -0.02  -0.00     0.01   0.01   0.00
  26   6    -0.00   0.34  -0.01    -0.08  -0.00   0.00    -0.12   0.04   0.09
  27   1    -0.01   0.09  -0.34     0.04  -0.06   0.07     0.06  -0.08   0.04
  28   1     0.03  -0.31   0.24     0.04   0.00   0.00     0.07  -0.11   0.10
  29   1    -0.04   0.04  -0.27     0.01   0.06  -0.08     0.01   0.10  -0.17
  30   6    -0.00  -0.34  -0.03    -0.09   0.00  -0.00     0.12   0.04  -0.09
  31   1    -0.03  -0.04  -0.27     0.01  -0.07  -0.08    -0.02   0.10   0.17
  32   1    -0.01  -0.09  -0.35     0.04   0.06   0.08    -0.06  -0.08  -0.04
  33   1     0.02   0.30   0.24     0.04  -0.01  -0.00    -0.07  -0.11  -0.10
                     46                     47                     48
                        a                      a                      a 
 Frequencies --  1013.2015              1100.2195              1105.6156
 Red. masses --     4.2317                 4.3674                 4.2418
 Frc consts  --     0.0000                 0.0000                 0.0000
 IR Inten    --     4.9489               177.1359               342.2986
 Raman Activ --     0.0000                 0.0000                 0.0000
 Depolar     --     0.0000                 0.0000                 0.0000
 Atom AN      X      Y      Z        X      Y      Z        X      Y      Z
   1   6     0.01  -0.08  -0.02    -0.10  -0.02   0.10     0.08  -0.08   0.01
   2   6    -0.02  -0.01   0.04     0.06  -0.00  -0.04     0.04   0.01  -0.04
   3   6     0.03   0.09  -0.10     0.05   0.09  -0.13    -0.01   0.04  -0.03
   4   6     0.02  -0.03   0.02    -0.07  -0.11   0.15    -0.00  -0.04   0.04
   5   6    -0.04  -0.05   0.08     0.10   0.07  -0.13    -0.02   0.04  -0.02
   6   6     0.05   0.06  -0.07    -0.02   0.12  -0.10    -0.01  -0.02   0.03
   7   1     0.03   0.01  -0.04     0.00   0.04  -0.02    -0.04   0.03   0.01
   8   1     0.01   0.00  -0.03    -0.14   0.08   0.02    -0.07   0.01   0.03
   9   1     0.01  -0.05   0.02     0.13  -0.18   0.08     0.01   0.01  -0.02
  10   1     0.02  -0.08   0.05     0.10  -0.09   0.02    -0.06   0.09  -0.05
  11   6     0.00   0.01  -0.00    -0.09  -0.02   0.09     0.09  -0.03  -0.05
  12   6    -0.02  -0.09   0.02    -0.07  -0.03   0.03     0.06  -0.04  -0.09
  13   6    -0.05   0.06   0.08     0.01  -0.05  -0.05    -0.01   0.09   0.09
  14   6     0.02  -0.02  -0.05     0.00   0.01   0.01    -0.08  -0.01   0.05
  15   6     0.05  -0.05  -0.09     0.05   0.01  -0.03    -0.10   0.05   0.11
  16   1    -0.02   0.00   0.04    -0.00  -0.02  -0.01     0.14   0.07  -0.03
  17   6    -0.04   0.09   0.11     0.02  -0.01  -0.02    -0.06   0.09   0.13
  18   1    -0.01  -0.05  -0.02     0.04   0.06   0.03    -0.12  -0.16  -0.07
  19   6    -0.02  -0.04  -0.02    -0.02   0.02   0.03     0.11  -0.08  -0.15
  20   1    -0.02  -0.07  -0.05     0.05   0.05   0.02    -0.05  -0.02   0.02
  21   1    -0.03   0.01   0.04     0.01  -0.00  -0.01     0.02   0.04   0.02
  22   8    -0.04   0.03   0.00    -0.22  -0.01   0.16    -0.07   0.00   0.05
  23   1     0.01  -0.00  -0.01     0.67  -0.29  -0.18     0.20  -0.09  -0.06
  24   8     0.03   0.02  -0.00     0.01   0.03   0.03    -0.05  -0.21  -0.17
  25   1     0.02   0.02   0.01    -0.07  -0.09  -0.04     0.44   0.56   0.22
  26   6     0.30   0.04   0.01     0.06   0.02  -0.03    -0.08   0.03   0.03
  27   1    -0.15   0.24  -0.30    -0.03   0.05  -0.05     0.04  -0.06   0.04
  28   1    -0.14  -0.02   0.02    -0.03   0.01  -0.01     0.04  -0.05   0.05
  29   1    -0.07  -0.25   0.28    -0.01  -0.03   0.04     0.01   0.07  -0.10
  30   6    -0.29   0.03  -0.01     0.09  -0.00  -0.04    -0.05   0.04   0.01
  31   1     0.07  -0.25  -0.29    -0.01   0.06   0.08     0.01  -0.02  -0.01
  32   1     0.14   0.23   0.30    -0.04  -0.07  -0.07     0.02   0.05   0.06
  33   1     0.14  -0.02  -0.01    -0.04  -0.03  -0.03     0.03  -0.02  -0.02
                     49                     50                     51
                        a                      a                      a 
 Frequencies --  1110.8785              1129.4965              1138.2269
 Red. masses --     5.4874                 4.9794                 4.0838
 Frc consts  --     0.0000                 0.0000                 0.0000
 IR Inten    --   107.7014               101.0646                13.2487
 Raman Activ --     0.0000                 0.0000                 0.0000
 Depolar     --     0.0000                 0.0000                 0.0000
 Atom AN      X      Y      Z        X      Y      Z        X      Y      Z
   1   6    -0.20   0.18   0.02     0.20  -0.12   0.01    -0.11   0.21  -0.11
   2   6    -0.06  -0.03   0.06     0.03   0.02  -0.04    -0.15  -0.01   0.10
   3   6     0.03  -0.06   0.04    -0.03   0.05  -0.02     0.08  -0.14   0.08
   4   6    -0.02   0.05  -0.03     0.03  -0.02   0.00     0.02   0.01  -0.02
   5   6     0.08  -0.06  -0.01    -0.08   0.02   0.03    -0.03   0.00   0.01
   6   6     0.01   0.06  -0.07     0.01  -0.06   0.04     0.04  -0.04   0.00
   7   1     0.08  -0.04  -0.02    -0.08   0.04   0.02     0.45  -0.18  -0.15
   8   1     0.09  -0.00  -0.05    -0.06   0.00   0.04     0.30  -0.09  -0.11
   9   1     0.04  -0.10   0.07    -0.04   0.10  -0.05    -0.11   0.10  -0.02
  10   1     0.15  -0.21   0.10    -0.11   0.15  -0.07    -0.16   0.25  -0.12
  11   6    -0.22  -0.01  -0.04     0.01  -0.22  -0.10    -0.01   0.14  -0.21
  12   6    -0.20  -0.22  -0.02    -0.18  -0.22  -0.10     0.08  -0.02  -0.03
  13   6     0.02  -0.05  -0.07     0.01   0.02   0.01     0.01   0.07   0.05
  14   6    -0.10   0.03   0.09    -0.11  -0.01   0.06    -0.03  -0.02  -0.00
  15   6     0.06   0.07   0.02     0.02   0.01  -0.01    -0.07  -0.01   0.03
  16   1     0.17   0.03  -0.07     0.21   0.07  -0.07     0.06   0.03  -0.00
  17   6     0.02   0.09   0.07     0.07   0.11   0.06     0.01   0.03   0.01
  18   1    -0.00   0.05   0.05    -0.06  -0.04  -0.00    -0.07  -0.12  -0.05
  19   6     0.01  -0.05  -0.05    -0.06  -0.05  -0.00    -0.00  -0.02  -0.01
  20   1     0.10   0.15   0.08    -0.05  -0.08  -0.05    -0.10  -0.14  -0.06
  21   1     0.18   0.08  -0.05     0.47   0.17  -0.16     0.16   0.05  -0.06
  22   8     0.09  -0.01  -0.05    -0.02   0.01   0.00    -0.09  -0.00   0.06
  23   1    -0.21   0.09   0.06     0.02  -0.01  -0.01     0.24  -0.10  -0.06
  24   8    -0.01  -0.07  -0.06     0.05   0.11   0.07     0.01   0.03   0.02
  25   1     0.16   0.20   0.08    -0.16  -0.20  -0.08    -0.05  -0.06  -0.02
  26   6     0.19   0.01   0.02    -0.02   0.16   0.08     0.03  -0.11   0.06
  27   1    -0.08   0.14  -0.16     0.01   0.02  -0.14    -0.01  -0.01   0.04
  28   1    -0.09  -0.01   0.01     0.03  -0.16   0.14    -0.01   0.03  -0.02
  29   1    -0.04  -0.16   0.17    -0.02   0.02  -0.15    -0.01  -0.07   0.12
  30   6     0.20   0.01   0.01     0.01   0.18  -0.00     0.02  -0.08   0.10
  31   1    -0.04   0.17   0.20     0.01   0.04   0.15    -0.02   0.02  -0.06
  32   1    -0.08  -0.14  -0.16    -0.01   0.03   0.13     0.00  -0.01  -0.10
  33   1    -0.09  -0.01  -0.01    -0.01  -0.12  -0.10     0.01   0.13   0.12
                     52                     53                     54
                        a                      a                      a 
 Frequencies --  1142.6215              1179.6390              1190.9498
 Red. masses --     3.4354                 8.7929                 2.5216
 Frc consts  --     0.0000                 0.0000                 0.0000
 IR Inten    --    25.2498                 6.3420                68.5045
 Raman Activ --     0.0000                 0.0000                 0.0000
 Depolar     --     0.0000                 0.0000                 0.0000
 Atom AN      X      Y      Z        X      Y      Z        X      Y      Z
   1   6     0.15  -0.03  -0.05    -0.01  -0.04  -0.02     0.04  -0.03  -0.01
   2   6    -0.06   0.01   0.02    -0.03   0.03  -0.00     0.01   0.10  -0.11
   3   6     0.00  -0.03   0.02    -0.01  -0.00   0.01     0.05   0.01  -0.04
   4   6     0.06  -0.02  -0.02     0.02  -0.01  -0.01    -0.13   0.11  -0.01
   5   6    -0.09   0.01   0.05    -0.00  -0.01   0.02    -0.03  -0.02   0.04
   6   6     0.06  -0.08   0.03     0.05  -0.01  -0.01    -0.10  -0.06   0.12
   7   1     0.14  -0.05  -0.05     0.08  -0.03  -0.03     0.43  -0.13  -0.18
   8   1     0.14  -0.06  -0.04     0.12  -0.04  -0.05    -0.30   0.07   0.14
   9   1    -0.13   0.19  -0.08    -0.08   0.11  -0.06    -0.18   0.33  -0.18
  10   1    -0.22   0.31  -0.15    -0.07   0.10  -0.05     0.19  -0.33   0.18
  11   6    -0.05  -0.13   0.03    -0.05   0.01   0.73     0.05  -0.03  -0.03
  12   6    -0.19  -0.06   0.07     0.00   0.06  -0.01    -0.00   0.02   0.01
  13   6    -0.04  -0.14  -0.10     0.02   0.02   0.02    -0.05   0.00   0.04
  14   6     0.05   0.05   0.02    -0.01  -0.06  -0.04     0.02  -0.04  -0.06
  15   6     0.14   0.02  -0.07    -0.01   0.02   0.03     0.01   0.02   0.01
  16   1    -0.11  -0.07   0.00     0.03   0.02  -0.01    -0.20  -0.05   0.07
  17   6    -0.01  -0.03  -0.02    -0.01  -0.01  -0.00     0.01  -0.02  -0.03
  18   1     0.18   0.30   0.15    -0.10  -0.17  -0.10    -0.04  -0.08  -0.05
  19   6    -0.01   0.03   0.03    -0.03  -0.02  -0.01    -0.07  -0.04   0.01
  20   1     0.23   0.30   0.13    -0.01   0.00   0.00     0.13   0.21   0.11
  21   1    -0.28  -0.09   0.10     0.17   0.05  -0.07     0.14   0.03  -0.06
  22   8    -0.06   0.02   0.02    -0.00   0.01  -0.01     0.08  -0.08   0.02
  23   1     0.09  -0.04  -0.02    -0.01   0.01   0.00     0.06  -0.03  -0.01
  24   8    -0.02  -0.05  -0.04     0.02   0.01  -0.01     0.05   0.03  -0.00
  25   1     0.08   0.10   0.04     0.02   0.02   0.01     0.02   0.02   0.01
  26   6     0.04   0.10   0.01     0.02   0.04  -0.27    -0.02   0.01   0.02
  27   1    -0.02   0.05  -0.12    -0.04   0.06   0.02     0.01  -0.02   0.02
  28   1    -0.01  -0.06   0.05    -0.04   0.18  -0.18     0.01  -0.03   0.02
  29   1    -0.02  -0.03  -0.03     0.01   0.02   0.07     0.01   0.03  -0.05
  30   6     0.02   0.09  -0.03     0.02  -0.05  -0.26    -0.03   0.02   0.00
  31   1     0.01   0.01   0.08     0.01  -0.03   0.04     0.01  -0.03  -0.01
  32   1    -0.01   0.00   0.08    -0.04  -0.06   0.00     0.01   0.02   0.05
  33   1    -0.02  -0.07  -0.07    -0.04  -0.16  -0.16     0.01   0.00  -0.00
                     55                     56                     57
                        a                      a                      a 
 Frequencies --  1194.9405              1237.5946              1241.4822
 Red. masses --     2.6299                 7.8325                 7.7216
 Frc consts  --     0.0000                 0.0000                 0.0000
 IR Inten    --    39.4229                53.0011               166.7749
 Raman Activ --     0.0000                 0.0000                 0.0000
 Depolar     --     0.0000                 0.0000                 0.0000
 Atom AN      X      Y      Z        X      Y      Z        X      Y      Z
   1   6    -0.01   0.01   0.01     0.12  -0.11  -0.02     0.12  -0.09   0.04
   2   6     0.00  -0.06   0.05    -0.04  -0.02   0.05    -0.06  -0.00   0.04
   3   6    -0.02  -0.00   0.01     0.07  -0.01  -0.04     0.08  -0.02  -0.04
   4   6     0.06  -0.05   0.01     0.21  -0.17   0.02     0.26  -0.21   0.02
   5   6     0.01   0.01  -0.02     0.01  -0.05   0.04     0.03  -0.07   0.04
   6   6     0.04   0.03  -0.05     0.02   0.05  -0.05     0.03   0.06  -0.08
   7   1    -0.22   0.07   0.09    -0.10   0.03   0.04    -0.08   0.02   0.03
   8   1     0.11  -0.02  -0.05    -0.28   0.09   0.09    -0.25   0.10   0.08
   9   1     0.10  -0.17   0.09    -0.11   0.15  -0.07    -0.16   0.23  -0.10
  10   1    -0.08   0.14  -0.08    -0.04   0.05  -0.03    -0.04   0.07  -0.04
  11   6     0.01   0.05  -0.11     0.01   0.47   0.01    -0.38   0.02  -0.09
  12   6     0.02   0.04   0.03    -0.13  -0.11   0.01     0.11   0.08   0.05
  13   6    -0.10   0.02   0.08    -0.01   0.05   0.05     0.02  -0.06  -0.07
  14   6     0.05  -0.10  -0.13     0.05  -0.03  -0.06    -0.06   0.01   0.05
  15   6     0.01   0.04   0.03    -0.01  -0.05  -0.05     0.03   0.06   0.03
  16   1    -0.42  -0.11   0.16     0.25   0.09  -0.07    -0.18  -0.08   0.05
  17   6     0.02  -0.04  -0.05    -0.09  -0.01   0.04     0.09   0.02  -0.04
  18   1    -0.10  -0.21  -0.13     0.15   0.21   0.10    -0.18  -0.25  -0.12
  19   6    -0.15  -0.08   0.02    -0.24  -0.17  -0.00     0.26   0.19   0.01
  20   1     0.25   0.40   0.21     0.05   0.07   0.03    -0.05  -0.08  -0.04
  21   1     0.33   0.08  -0.14     0.09   0.03  -0.03    -0.07  -0.02   0.03
  22   8    -0.04   0.04  -0.00    -0.12   0.10  -0.01    -0.15   0.12  -0.01
  23   1    -0.02   0.01   0.00    -0.04   0.03   0.00    -0.06   0.04   0.01
  24   8     0.09   0.06  -0.01     0.14   0.10  -0.00    -0.15  -0.11  -0.00
  25   1     0.04   0.03   0.01     0.05   0.04   0.01    -0.04  -0.04  -0.01
  26   6    -0.01  -0.03   0.03     0.00  -0.17   0.01     0.12  -0.02   0.03
  27   1     0.01  -0.02   0.03    -0.01  -0.02   0.13    -0.05   0.08  -0.04
  28   1     0.01  -0.01   0.01    -0.01   0.09  -0.08    -0.07  -0.03   0.02
  29   1    -0.00  -0.01   0.02     0.03   0.02   0.07    -0.01  -0.07   0.08
  30   6    -0.01  -0.01   0.05    -0.01  -0.17  -0.01     0.11   0.01   0.03
  31   1     0.01  -0.03  -0.06    -0.03   0.01  -0.08    -0.02   0.07   0.07
  32   1     0.01   0.01  -0.01     0.02  -0.01  -0.12    -0.05  -0.07  -0.05
  33   1     0.00   0.05   0.05     0.02   0.09   0.08    -0.07   0.03   0.02
                     58                     59                     60
                        a                      a                      a 
 Frequencies --  1275.9620              1279.4483              1281.4938
 Red. masses --     9.6670                 6.3335                 4.9304
 Frc consts  --     0.0000                 0.0000                 0.0000
 IR Inten    --   137.8959               102.7948                57.9968
 Raman Activ --     0.0000                 0.0000                 0.0000
 Depolar     --     0.0000                 0.0000                 0.0000
 Atom AN      X      Y      Z        X      Y      Z        X      Y      Z
   1   6    -0.20   0.07   0.10     0.16  -0.20   0.11     0.03   0.18  -0.17
   2   6    -0.06  -0.02   0.06     0.10  -0.03  -0.05    -0.07   0.08  -0.03
   3   6     0.10  -0.08   0.01    -0.01   0.08  -0.07    -0.10  -0.00   0.07
   4   6     0.25  -0.11  -0.07    -0.21   0.17  -0.02    -0.01  -0.13   0.13
   5   6     0.09  -0.00  -0.06    -0.14   0.09   0.01     0.09  -0.13   0.05
   6   6    -0.12   0.10  -0.02     0.08  -0.09   0.03     0.06   0.01  -0.06
   7   1    -0.13   0.02   0.07    -0.09   0.06   0.01     0.28  -0.10  -0.10
   8   1     0.17  -0.03  -0.08     0.18  -0.07  -0.04    -0.41   0.14   0.15
   9   1    -0.16   0.22  -0.09    -0.02   0.08  -0.06     0.19  -0.31   0.16
  10   1     0.11  -0.12   0.05    -0.01  -0.03   0.03    -0.12   0.21  -0.11
  11   6    -0.08  -0.35  -0.05    -0.23   0.10  -0.11    -0.07  -0.22   0.02
  12   6     0.22   0.22   0.05    -0.03   0.17   0.21     0.07   0.16   0.08
  13   6     0.15   0.15   0.04    -0.02   0.02   0.03     0.04   0.06   0.03
  14   6     0.11  -0.01  -0.08     0.07   0.05  -0.00     0.08   0.03  -0.02
  15   6    -0.19  -0.10   0.03    -0.08  -0.11  -0.05    -0.11  -0.09  -0.01
  16   1     0.06   0.05   0.01     0.37   0.12  -0.12     0.17   0.07  -0.05
  17   6    -0.04  -0.10  -0.06     0.10  -0.01  -0.08     0.03  -0.04  -0.06
  18   1     0.07   0.07   0.01    -0.17  -0.30  -0.16    -0.05  -0.10  -0.07
  19   6    -0.31  -0.19   0.02    -0.05  -0.13  -0.09    -0.14  -0.14  -0.04
  20   1    -0.06  -0.03   0.01     0.12   0.20   0.11     0.03   0.08   0.05
  21   1    -0.03  -0.04  -0.01    -0.21  -0.08   0.07    -0.11  -0.05   0.03
  22   8    -0.14   0.08   0.02     0.10  -0.09   0.02     0.02   0.04  -0.05
  23   1     0.03  -0.01  -0.01     0.06  -0.04  -0.01    -0.14   0.06   0.03
  24   8     0.16   0.11  -0.00     0.05   0.08   0.04     0.08   0.08   0.02
  25   1     0.07   0.07   0.02    -0.05  -0.07  -0.03    -0.00  -0.01  -0.01
  26   6     0.01   0.10   0.00     0.04  -0.02   0.02     0.03   0.03  -0.00
  27   1     0.01   0.00  -0.08    -0.02   0.02   0.00    -0.02   0.04  -0.03
  28   1    -0.00  -0.06   0.05    -0.03  -0.01   0.01    -0.03  -0.03   0.02
  29   1    -0.03  -0.03  -0.04    -0.02  -0.06   0.07     0.00   0.01  -0.05
  30   6     0.02   0.09   0.01     0.03  -0.04   0.02     0.00   0.05   0.01
  31   1     0.01   0.01   0.08    -0.04   0.07   0.04     0.00   0.01   0.04
  32   1    -0.02  -0.01   0.07     0.00  -0.01  -0.05    -0.01   0.00   0.02
  33   1    -0.01  -0.04  -0.03    -0.02   0.04   0.03     0.00  -0.04  -0.03
                     61                     62                     63
                        a                      a                      a 
 Frequencies --  1287.0103              1330.9462              1334.6603
 Red. masses --     8.3007                11.5450                11.6707
 Frc consts  --     0.0000                 0.0000                 0.0000
 IR Inten    --   102.1933                28.5966                45.6467
 Raman Activ --     0.0000                 0.0000                 0.0000
 Depolar     --     0.0000                 0.0000                 0.0000
 Atom AN      X      Y      Z        X      Y      Z        X      Y      Z
   1   6     0.22  -0.17   0.03     0.21   0.15  -0.29     0.10   0.09  -0.15
   2   6     0.10  -0.00  -0.07     0.20  -0.30   0.15     0.10  -0.14   0.07
   3   6    -0.06   0.10  -0.06    -0.29   0.11   0.09    -0.15   0.05   0.05
   4   6    -0.26   0.14   0.05     0.11   0.21  -0.28     0.06   0.10  -0.14
   5   6    -0.12   0.04   0.05     0.13  -0.24   0.14     0.07  -0.12   0.07
   6   6     0.13  -0.11   0.01    -0.30   0.07   0.14    -0.15   0.04   0.07
   7   1     0.03   0.02  -0.04    -0.05   0.02   0.01    -0.02   0.01   0.01
   8   1    -0.02  -0.01   0.03    -0.01  -0.00   0.01    -0.01   0.00   0.01
   9   1     0.07  -0.06   0.01    -0.00   0.01  -0.01     0.01  -0.01   0.00
  10   1    -0.08   0.08  -0.02     0.01  -0.03   0.02     0.01  -0.01   0.01
  11   6    -0.39   0.05  -0.02    -0.13   0.00   0.03     0.06   0.04  -0.01
  12   6     0.23   0.08  -0.06     0.12  -0.05  -0.13    -0.24   0.14   0.28
  13   6     0.18   0.10  -0.03    -0.14  -0.02   0.07     0.29   0.06  -0.14
  14   6     0.03  -0.06  -0.08     0.10   0.14   0.07    -0.21  -0.29  -0.14
  15   6    -0.08   0.01   0.06     0.05   0.12   0.07    -0.12  -0.25  -0.15
  16   1    -0.23  -0.06   0.10     0.00   0.01   0.01     0.02  -0.01  -0.02
  17   6    -0.10  -0.08  -0.01    -0.14  -0.06   0.03     0.30   0.13  -0.08
  18   1     0.16   0.22   0.11    -0.00  -0.01  -0.01    -0.01  -0.00   0.01
  19   6    -0.21  -0.03   0.11     0.03  -0.12  -0.13    -0.07   0.25   0.28
  20   1    -0.16  -0.22  -0.09     0.00   0.01   0.01    -0.00  -0.02  -0.02
  21   1     0.14   0.02  -0.07    -0.03  -0.02   0.01     0.06   0.03  -0.01
  22   8     0.14  -0.09  -0.00    -0.03  -0.01   0.03    -0.02  -0.00   0.02
  23   1     0.00  -0.01   0.01     0.15  -0.06  -0.04     0.07  -0.03  -0.02
  24   8     0.07   0.01  -0.04     0.03   0.04   0.02    -0.05  -0.07  -0.03
  25   1     0.11   0.13   0.04    -0.04  -0.05  -0.02     0.08   0.11   0.05
  26   6     0.08  -0.02   0.02     0.04  -0.01  -0.01     0.00  -0.01   0.00
  27   1    -0.04   0.05  -0.03    -0.02   0.02  -0.01    -0.00   0.00  -0.00
  28   1    -0.06   0.00  -0.00    -0.02   0.01  -0.01     0.01   0.01  -0.00
  29   1    -0.02  -0.06   0.05    -0.00  -0.02   0.03     0.00   0.00   0.00
  30   6     0.09   0.01   0.02     0.03   0.01  -0.01    -0.03  -0.02  -0.00
  31   1    -0.01   0.05   0.03    -0.00   0.02   0.02    -0.00  -0.01  -0.02
  32   1    -0.04  -0.07  -0.04    -0.01  -0.02  -0.00     0.01   0.02   0.00
  33   1    -0.08   0.01   0.01    -0.02  -0.00  -0.01     0.01   0.01   0.01
                     64                     65                     66
                        a                      a                      a 
 Frequencies --  1393.9634              1410.9006              1418.0786
 Red. masses --     3.2894                 3.2414                 9.7723
 Frc consts  --     0.0000                 0.0000                 0.0000
 IR Inten    --     3.4983                 1.3662                21.8563
 Raman Activ --     0.0000                 0.0000                 0.0000
 Depolar     --     0.0000                 0.0000                 0.0000
 Atom AN      X      Y      Z        X      Y      Z        X      Y      Z
   1   6     0.02   0.02  -0.02     0.01   0.03  -0.04    -0.09  -0.12   0.18
   2   6    -0.03   0.00   0.02    -0.05   0.02   0.01     0.18  -0.06  -0.07
   3   6     0.04  -0.03   0.00     0.04  -0.04   0.01    -0.17   0.15  -0.03
   4   6     0.02   0.03  -0.04     0.02   0.02  -0.04    -0.07  -0.11   0.15
   5   6    -0.05   0.03   0.01    -0.04   0.03  -0.00     0.20  -0.11  -0.03
   6   6     0.03  -0.03   0.01     0.02  -0.04   0.02    -0.14   0.16  -0.06
   7   1    -0.04   0.01   0.02    -0.03  -0.00   0.02     0.12  -0.01  -0.08
   8   1     0.00  -0.01   0.01     0.00  -0.01   0.00     0.10   0.01  -0.07
   9   1    -0.01   0.01   0.01     0.01  -0.04   0.02    -0.01   0.08  -0.06
  10   1     0.01  -0.03   0.02     0.01  -0.03   0.02    -0.02   0.09  -0.08
  11   6    -0.01   0.00  -0.02    -0.00  -0.02   0.00     0.05  -0.02  -0.11
  12   6     0.02  -0.02  -0.02    -0.01   0.04   0.04    -0.10   0.17   0.23
  13   6     0.03   0.03   0.01    -0.02  -0.03  -0.02    -0.19  -0.21  -0.07
  14   6    -0.03  -0.00   0.02     0.05   0.02  -0.01     0.22   0.07  -0.09
  15   6    -0.05  -0.03   0.00     0.04   0.03   0.00     0.26   0.14  -0.04
  16   1    -0.00   0.01   0.01    -0.00  -0.01  -0.00     0.14  -0.00  -0.09
  17   6     0.04   0.03   0.00    -0.04  -0.04  -0.01    -0.21  -0.19  -0.04
  18   1    -0.01  -0.01   0.01    -0.01  -0.03  -0.02     0.00  -0.09  -0.08
  19   6     0.02  -0.03  -0.04    -0.02   0.02   0.03    -0.09   0.14   0.19
  20   1     0.01   0.03   0.02    -0.01  -0.03  -0.02    -0.03  -0.13  -0.10
  21   1    -0.03  -0.00   0.02     0.02  -0.00  -0.02     0.15   0.00  -0.09
  22   8    -0.01  -0.00   0.01    -0.01  -0.00   0.01     0.03   0.02  -0.04
  23   1     0.02  -0.01  -0.01     0.02  -0.01  -0.00    -0.08   0.04   0.02
  24   8     0.00   0.01   0.01     0.00  -0.01  -0.01     0.00  -0.06  -0.05
  25   1    -0.02  -0.02  -0.01     0.01   0.02   0.01     0.07   0.09   0.03
  26   6     0.02  -0.17   0.24     0.02  -0.18   0.23    -0.01  -0.01   0.06
  27   1    -0.13   0.12  -0.31    -0.14   0.13  -0.32    -0.00  -0.00  -0.06
  28   1    -0.03   0.31  -0.19    -0.01   0.30  -0.18     0.01   0.04  -0.02
  29   1     0.09   0.16  -0.31     0.10   0.18  -0.30     0.00   0.02  -0.06
  30   6     0.02   0.17   0.25    -0.01  -0.17  -0.23    -0.02   0.02   0.07
  31   1     0.09  -0.15  -0.32    -0.10   0.17   0.30     0.01  -0.02  -0.06
  32   1    -0.13  -0.12  -0.31     0.14   0.13   0.32    -0.00   0.00  -0.08
  33   1    -0.03  -0.31  -0.19     0.01   0.30   0.19     0.02  -0.06  -0.03
                     67                     68                     69
                        a                      a                      a 
 Frequencies --  1419.2683              1488.9801              1489.1593
 Red. masses --     9.6993                 6.6954                 7.0043
 Frc consts  --     0.0000                 0.0000                 0.0000
 IR Inten    --    26.3816               123.8367               119.4093
 Raman Activ --     0.0000                 0.0000                 0.0000
 Depolar     --     0.0000                 0.0000                 0.0000
 Atom AN      X      Y      Z        X      Y      Z        X      Y      Z
   1   6    -0.12  -0.17   0.23     0.26  -0.17  -0.01    -0.04   0.03  -0.00
   2   6     0.23  -0.08  -0.08    -0.07   0.21  -0.15     0.01  -0.03   0.03
   3   6    -0.20   0.19  -0.05    -0.21  -0.02   0.16     0.03   0.00  -0.02
   4   6    -0.11  -0.14   0.20     0.29  -0.19  -0.02    -0.04   0.03   0.00
   5   6     0.26  -0.14  -0.04    -0.07   0.20  -0.14     0.01  -0.03   0.02
   6   6    -0.17   0.20  -0.08    -0.19  -0.01   0.14     0.03   0.00  -0.02
   7   1     0.15  -0.01  -0.10     0.16  -0.08  -0.04    -0.03   0.01   0.01
   8   1     0.11   0.01  -0.09     0.14  -0.07  -0.03    -0.04   0.01   0.00
   9   1    -0.01   0.10  -0.09     0.12  -0.16   0.07    -0.02   0.02  -0.01
  10   1    -0.03   0.13  -0.10     0.10  -0.14   0.06    -0.02   0.02  -0.01
  11   6     0.01   0.07  -0.01    -0.08   0.05   0.01     0.09   0.04  -0.01
  12   6     0.08  -0.14  -0.17     0.01   0.01   0.00    -0.26  -0.18   0.00
  13   6     0.13   0.16   0.06    -0.01   0.00   0.01     0.19  -0.01  -0.14
  14   6    -0.18  -0.06   0.06    -0.00  -0.01  -0.01     0.08   0.22   0.16
  15   6    -0.19  -0.11   0.03    -0.00  -0.01  -0.01     0.07   0.20   0.14
  16   1    -0.10   0.00   0.07     0.02   0.00   0.00    -0.14  -0.07   0.03
  17   6     0.16   0.15   0.04    -0.01   0.00   0.01     0.21  -0.03  -0.17
  18   1     0.00   0.06   0.06     0.01   0.01   0.01    -0.12  -0.17  -0.07
  19   6     0.08  -0.11  -0.16     0.01   0.01   0.00    -0.31  -0.17   0.04
  20   1     0.03   0.11   0.08     0.01   0.01   0.00    -0.11  -0.15  -0.06
  21   1    -0.11  -0.00   0.07     0.01   0.00  -0.00    -0.15  -0.07   0.03
  22   8     0.05   0.02  -0.05    -0.07   0.05  -0.00     0.01  -0.01   0.00
  23   1    -0.11   0.05   0.03    -0.02   0.01   0.00     0.01  -0.00  -0.00
  24   8    -0.00   0.04   0.04    -0.00  -0.00   0.00     0.07   0.04  -0.01
  25   1    -0.06  -0.07  -0.03    -0.00  -0.00  -0.00     0.04   0.05   0.02
  26   6    -0.02  -0.04   0.06    -0.07   0.03   0.01    -0.08  -0.05  -0.05
  27   1    -0.02   0.01  -0.08     0.10  -0.12  -0.16    -0.08   0.07  -0.07
  28   1     0.04   0.07  -0.04     0.23   0.06  -0.03     0.27  -0.06   0.04
  29   1     0.02   0.05  -0.05    -0.03  -0.06   0.14     0.11   0.20   0.21
  30   6     0.02  -0.04  -0.04     0.09  -0.05   0.04     0.06   0.03  -0.02
  31   1    -0.02   0.04   0.04    -0.11   0.19  -0.23     0.05  -0.08  -0.12
  32   1     0.02   0.01   0.06     0.06   0.05   0.11    -0.11  -0.13   0.15
  33   1    -0.03   0.06   0.04    -0.31  -0.05  -0.04    -0.20   0.07   0.03
                     70                     71                     72
                        a                      a                      a 
 Frequencies --  1497.8482              1499.7002              1507.2957
 Red. masses --     5.3749                 2.6893                 2.1172
 Frc consts  --     0.0000                 0.0000                 0.0000
 IR Inten    --    39.6302                24.2398                25.4330
 Raman Activ --     0.0000                 0.0000                 0.0000
 Depolar     --     0.0000                 0.0000                 0.0000
 Atom AN      X      Y      Z        X      Y      Z        X      Y      Z
   1   6     0.14  -0.11   0.01     0.08  -0.08   0.02    -0.07   0.04   0.00
   2   6    -0.02   0.11  -0.09    -0.02   0.09  -0.07     0.01  -0.03   0.03
   3   6    -0.14   0.00   0.09    -0.10  -0.00   0.07     0.05  -0.00  -0.03
   4   6     0.16  -0.11  -0.00     0.11  -0.08  -0.00    -0.05   0.03   0.00
   5   6    -0.03   0.11  -0.08    -0.02   0.08  -0.06     0.02  -0.04   0.03
   6   6    -0.12  -0.00   0.08    -0.09   0.00   0.06     0.02   0.01  -0.03
   7   1     0.09  -0.04  -0.02     0.07  -0.03  -0.02    -0.03   0.01   0.01
   8   1     0.12  -0.04  -0.03     0.12  -0.04  -0.04    -0.01   0.02   0.01
   9   1     0.07  -0.08   0.03     0.05  -0.07   0.02    -0.02   0.03  -0.01
  10   1     0.06  -0.07   0.03     0.04  -0.05   0.02    -0.02   0.03  -0.01
  11   6    -0.01   0.08   0.01     0.01   0.01  -0.04     0.12   0.01   0.01
  12   6    -0.15  -0.13  -0.03     0.04   0.04   0.02    -0.08  -0.04   0.00
  13   6     0.13   0.00  -0.08    -0.05   0.00   0.03     0.03  -0.01  -0.03
  14   6     0.02   0.13   0.10    -0.01  -0.05  -0.04     0.01   0.04   0.03
  15   6     0.03   0.12   0.09    -0.01  -0.04  -0.03     0.03   0.05   0.03
  16   1    -0.14  -0.05   0.03     0.08   0.03  -0.03    -0.01  -0.02   0.01
  17   6     0.16  -0.00  -0.10    -0.06   0.00   0.04     0.06   0.00  -0.03
  18   1    -0.08  -0.10  -0.04     0.03   0.04   0.01    -0.03  -0.04  -0.02
  19   6    -0.19  -0.11   0.02     0.07   0.04  -0.01    -0.07  -0.04   0.01
  20   1    -0.07  -0.09  -0.03     0.03   0.03   0.01    -0.02  -0.03  -0.02
  21   1    -0.10  -0.04   0.02     0.04   0.02  -0.01    -0.03  -0.01   0.01
  22   8    -0.04   0.03  -0.00    -0.03   0.02  -0.00     0.01  -0.01   0.00
  23   1    -0.02   0.01   0.00    -0.01   0.01   0.00     0.00  -0.00  -0.00
[...]
  27   1     0.28  -0.31  -0.19    -0.01   0.01   0.00     0.01  -0.01  -0.00
  28   1     0.07   0.20  -0.12    -0.01   0.00  -0.00     0.00   0.01  -0.00
  29   1    -0.19  -0.33  -0.04     0.00  -0.00   0.01    -0.00  -0.00  -0.01
  30   6     0.02   0.12  -0.10     0.01   0.01  -0.01     0.01   0.00  -0.01
  31   1     0.22  -0.39   0.10     0.00   0.00   0.01     0.00  -0.00   0.01
  32   1    -0.31  -0.35   0.16    -0.01  -0.01   0.00    -0.01  -0.01   0.00
  33   1    -0.00   0.22   0.13    -0.01  -0.00  -0.00    -0.00   0.01   0.00
                     76                     77                     78
                        a                      a                      a 
 Frequencies --  1610.4056              1611.7758              3022.8082
 Red. masses --    11.5399                11.5563                 1.9433
 Frc consts  --     0.0000                 0.0000                 0.0000
 IR Inten    --    81.3392                47.2179                10.6716
 Raman Activ --     0.0000                 0.0000                 0.0000
 Depolar     --     0.0000                 0.0000                 0.0000
 Atom AN      X      Y      Z        X      Y      Z        X      Y      Z
   1   6     0.15  -0.12   0.01    -0.15   0.11   0.00     0.00  -0.00  -0.00
   2   6    -0.23   0.25  -0.09     0.20  -0.22   0.07     0.00   0.00  -0.00
   3   6     0.29  -0.15  -0.05    -0.26   0.13   0.05    -0.00   0.00  -0.00
   4   6    -0.14   0.13  -0.03     0.14  -0.11   0.01     0.00   0.00  -0.00
   5   6     0.21  -0.25   0.09    -0.19   0.21  -0.07    -0.00   0.00   0.00
   6   6    -0.28   0.14   0.06     0.27  -0.13  -0.06    -0.00   0.00  -0.00
   7   1    -0.06   0.00   0.04     0.06  -0.01  -0.03     0.00  -0.00   0.00
   8   1     0.06  -0.01  -0.03    -0.06   0.01   0.03     0.00  -0.01   0.01
   9   1     0.03  -0.07   0.04    -0.02   0.06  -0.04    -0.01  -0.00   0.00
  10   1    -0.02   0.06  -0.04     0.02  -0.05   0.04     0.00   0.00  -0.00
  11   6    -0.04   0.00  -0.00    -0.00  -0.03   0.00    -0.00   0.00   0.00
  12   6     0.15   0.10  -0.01     0.18   0.10  -0.02     0.00  -0.00   0.00
  13   6    -0.26  -0.12   0.06    -0.30  -0.13   0.07     0.00   0.00   0.00
  14   6    -0.21  -0.22  -0.07    -0.23  -0.24  -0.07    -0.00   0.00   0.00
  15   6     0.18   0.20   0.07     0.20   0.22   0.07    -0.00   0.00   0.00
  16   1     0.06   0.01  -0.03     0.07   0.01  -0.03    -0.00  -0.00  -0.00
  17   6     0.28   0.14  -0.05     0.31   0.15  -0.06     0.00   0.00   0.00
  18   1     0.02   0.06   0.04     0.02   0.06   0.04     0.00  -0.00  -0.00
  19   6    -0.14  -0.10  -0.00    -0.16  -0.11   0.01     0.00   0.00  -0.00
  20   1    -0.02  -0.05  -0.03    -0.02  -0.05  -0.04     0.00  -0.00  -0.00
  21   1    -0.06  -0.00   0.04    -0.07  -0.00   0.04    -0.00  -0.00  -0.00
  22   8     0.01  -0.02   0.01    -0.01   0.01  -0.00    -0.00   0.00  -0.00
  23   1     0.02  -0.01  -0.01    -0.01   0.01   0.00     0.00  -0.00   0.00
  24   8     0.02   0.01  -0.00     0.02   0.01  -0.00    -0.00   0.00   0.00
  25   1     0.01   0.01   0.00     0.01   0.01   0.01    -0.00  -0.00   0.00
  26   6    -0.00  -0.00   0.00    -0.00  -0.01   0.00    -0.24   0.04   0.04
  27   1    -0.00   0.00  -0.01    -0.00   0.00  -0.00     0.28   0.29   0.01
  28   1     0.01   0.00   0.00     0.00   0.00  -0.00    -0.03  -0.09  -0.14
  29   1     0.00   0.00   0.01     0.00   0.01  -0.00     0.59  -0.34  -0.03
  30   6    -0.00   0.00   0.00     0.00  -0.00  -0.00     0.15   0.01  -0.02
  31   1     0.00  -0.00   0.01    -0.00   0.01   0.00    -0.35  -0.20   0.01
  32   1    -0.00  -0.00  -0.01     0.00   0.00   0.00    -0.21   0.21  -0.00
  33   1     0.01  -0.00   0.00    -0.00   0.00   0.00     0.02  -0.04   0.06
                     79                     80                     81
                        a                      a                      a 
 Frequencies --  3023.9581              3030.3473              3035.4096
 Red. masses --     1.9252                 1.8262                 1.8051
 Frc consts  --     0.0000                 0.0000                 0.0000
 IR Inten    --   121.3738                29.2861               132.7202
 Raman Activ --     0.0000                 0.0000                 0.0000
 Depolar     --     0.0000                 0.0000                 0.0000
 Atom AN      X      Y      Z        X      Y      Z        X      Y      Z
   1   6    -0.00  -0.00  -0.00     0.00   0.00   0.00     0.00   0.00   0.00
   2   6    -0.00   0.00   0.00    -0.00  -0.00   0.00    -0.00  -0.00   0.00
   3   6     0.00  -0.00   0.00    -0.00   0.00  -0.00    -0.00   0.00  -0.00
   4   6    -0.00   0.00   0.00     0.00  -0.00  -0.00     0.00  -0.00   0.00
   5   6     0.00   0.00  -0.00    -0.00  -0.00   0.00    -0.00  -0.00   0.00
   6   6    -0.00  -0.00   0.00    -0.00   0.00  -0.00     0.00  -0.00   0.00
   7   1     0.00   0.00  -0.00     0.00  -0.00   0.00     0.00  -0.01   0.01
   8   1    -0.00   0.00  -0.00     0.00  -0.00   0.00    -0.00   0.01  -0.01
   9   1     0.00   0.00  -0.00     0.01   0.00  -0.00     0.00   0.00  -0.00
  10   1    -0.00  -0.00   0.00     0.00   0.00  -0.00     0.00   0.00  -0.00
  11   6     0.01   0.00  -0.00    -0.00  -0.00  -0.00    -0.00   0.01   0.00
  12   6    -0.00  -0.00   0.00     0.00  -0.00   0.00    -0.00   0.00  -0.00
  13   6     0.00   0.00   0.00     0.00  -0.00  -0.00    -0.00  -0.00  -0.00
  14   6    -0.00  -0.00   0.00    -0.00   0.00   0.00     0.00   0.00  -0.00
  15   6     0.00  -0.00  -0.00    -0.00   0.00   0.00     0.00  -0.00  -0.00
  16   1    -0.00  -0.01  -0.01     0.00   0.00   0.00     0.00   0.01   0.01
  17   6     0.00   0.00   0.00    -0.00  -0.00  -0.00    -0.00   0.00   0.00
  18   1     0.00  -0.00  -0.00     0.00  -0.00  -0.00    -0.00   0.00   0.00
  19   6    -0.00  -0.00   0.00     0.00   0.00   0.00    -0.00  -0.00  -0.00
  20   1    -0.00   0.00   0.00     0.00  -0.00  -0.00    -0.00   0.00   0.00
  21   1     0.00  -0.00  -0.00     0.00   0.00   0.00    -0.00  -0.00  -0.00
  22   8     0.00  -0.00  -0.00    -0.00   0.00   0.00    -0.00   0.00   0.00
  23   1    -0.00   0.00   0.00     0.00   0.00  -0.00     0.00   0.00  -0.00
  24   8     0.00   0.00   0.00    -0.00  -0.00  -0.00     0.00   0.00   0.00
  25   1     0.00  -0.00  -0.00     0.00   0.00   0.00     0.00  -0.00  -0.00
  26   6     0.14  -0.05  -0.04    -0.08  -0.17  -0.06     0.04   0.16   0.07
  27   1    -0.10  -0.12  -0.01     0.48   0.41  -0.01    -0.40  -0.33   0.01
  28   1     0.02   0.08   0.12    -0.02   0.13   0.23     0.01  -0.14  -0.24
  29   1    -0.40   0.23   0.02    -0.18   0.07  -0.00     0.25  -0.11  -0.00
  30   6     0.23   0.06  -0.05    -0.07   0.16  -0.06    -0.04   0.18  -0.07
  31   1    -0.62  -0.35   0.02    -0.17  -0.06  -0.00    -0.28  -0.13  -0.00
  32   1    -0.23   0.25  -0.01     0.44  -0.38  -0.01     0.43  -0.36  -0.01
  33   1     0.03  -0.11   0.16    -0.02  -0.13   0.21    -0.02  -0.16   0.26
                     82                     83                     84
                        a                      a                      a 
 Frequencies --  3041.2166              3042.5541              3063.5253
 Red. masses --     1.3949                 1.3836                 1.7862
 Frc consts  --     0.0000                 0.0000                 0.0000
 IR Inten    --    76.9994                 7.8628                60.2631
 Raman Activ --     0.0000                 0.0000                 0.0000
 Depolar     --     0.0000                 0.0000                 0.0000
 Atom AN      X      Y      Z        X      Y      Z        X      Y      Z
   1   6     0.00   0.00  -0.00    -0.00   0.00  -0.00    -0.01   0.00   0.00
   2   6    -0.00  -0.00   0.00    -0.01  -0.00   0.01    -0.09  -0.02   0.08
   3   6     0.00   0.00  -0.00     0.00   0.00  -0.00    -0.01   0.17  -0.16
   4   6    -0.00  -0.00   0.00    -0.00   0.00  -0.00    -0.01   0.01  -0.00
   5   6     0.00  -0.00  -0.00     0.00   0.00  -0.00     0.01  -0.00  -0.01
   6   6     0.00  -0.00   0.00    -0.00   0.00  -0.00     0.00  -0.00   0.00
   7   1     0.00  -0.01   0.01    -0.00  -0.00   0.00     0.03  -0.62   0.57
   8   1    -0.00   0.01  -0.01     0.00  -0.00   0.00    -0.00   0.01  -0.01
   9   1     0.01   0.00  -0.01     0.02   0.01  -0.02     0.34   0.07  -0.29
  10   1    -0.00  -0.00   0.00    -0.00  -0.00   0.00    -0.04  -0.00   0.03
  11   6    -0.00   0.00  -0.01    -0.00  -0.00  -0.00     0.00   0.00  -0.00
  12   6     0.00  -0.00  -0.00     0.00  -0.00   0.00     0.00  -0.00  -0.00
  13   6     0.00   0.00   0.00     0.00   0.00   0.00     0.00  -0.00  -0.00
  14   6    -0.00   0.00   0.00     0.00  -0.00  -0.00    -0.01   0.00   0.00
  15   6     0.00  -0.00  -0.00    -0.00   0.00   0.00    -0.01   0.00   0.01
  16   1    -0.00  -0.01  -0.00    -0.00  -0.01  -0.01     0.00   0.00   0.00
  17   6     0.00  -0.00  -0.00     0.00  -0.00  -0.00     0.00  -0.00  -0.00
  18   1     0.02  -0.00  -0.01    -0.02   0.00   0.01     0.02  -0.00  -0.02
  19   6    -0.00   0.00   0.00     0.00   0.00   0.00    -0.00  -0.00   0.00
  20   1    -0.00   0.00   0.00     0.00  -0.00  -0.00     0.05  -0.01  -0.04
  21   1     0.00   0.00   0.00     0.00   0.00   0.00    -0.00   0.00   0.00
  22   8    -0.00  -0.00   0.00     0.00  -0.00  -0.00     0.00  -0.00   0.00
  23   1     0.00   0.00  -0.00    -0.00  -0.00   0.00     0.00   0.00  -0.00
  24   8     0.00   0.00   0.00    -0.00  -0.00  -0.00    -0.00  -0.00   0.00
  25   1     0.00  -0.00  -0.00    -0.00   0.00   0.00     0.00   0.00  -0.00
  26   6    -0.02  -0.03  -0.15     0.01   0.01   0.10     0.00  -0.00   0.00
  27   1    -0.18  -0.16  -0.02     0.12   0.11   0.01     0.00   0.00   0.00
  28   1    -0.03   0.40   0.60     0.02  -0.26  -0.39     0.00  -0.00  -0.00
  29   1     0.27  -0.16  -0.03    -0.18   0.10   0.02    -0.00   0.00   0.00
  30   6    -0.01   0.02  -0.10    -0.02   0.02  -0.15     0.00  -0.00   0.01
  31   1     0.17   0.10  -0.02     0.27   0.16  -0.03    -0.01  -0.00   0.00
  32   1    -0.11   0.10  -0.01    -0.18   0.17  -0.02    -0.00   0.00   0.00
  33   1    -0.02  -0.27   0.39    -0.03  -0.41   0.59     0.00   0.01  -0.02
                     85                     86                     87
                        a                      a                      a 
 Frequencies --  3065.7371              3075.7249              3079.7467
 Red. masses --     1.8138                 1.8004                 1.8640
 Frc consts  --     0.0000                 0.0000                 0.0000
 IR Inten    --    89.9654                89.5170                90.7967
 Raman Activ --     0.0000                 0.0000                 0.0000
 Depolar     --     0.0000                 0.0000                 0.0000
 Atom AN      X      Y      Z        X      Y      Z        X      Y      Z
   1   6    -0.00   0.00   0.00     0.00  -0.00   0.00     0.01  -0.00   0.00
   2   6    -0.00  -0.00   0.00     0.03   0.01  -0.03     0.18   0.04  -0.15
   3   6    -0.00   0.01  -0.01    -0.00   0.02  -0.02    -0.00   0.10  -0.09
   4   6    -0.00   0.00  -0.00    -0.00   0.00   0.00    -0.01   0.00   0.00
   5   6     0.00  -0.00  -0.00     0.01   0.00  -0.00     0.02   0.00  -0.01
   6   6     0.00   0.00  -0.00    -0.00   0.00  -0.00    -0.00   0.01  -0.01
   7   1     0.00  -0.04   0.04     0.00  -0.08   0.07     0.01  -0.32   0.29
   8   1    -0.00  -0.00   0.00     0.00  -0.01   0.01     0.00  -0.03   0.03
   9   1     0.02   0.00  -0.01    -0.11  -0.02   0.09    -0.63  -0.13   0.54
  10   1    -0.00  -0.00   0.00    -0.02  -0.00   0.01    -0.05  -0.01   0.05
  11   6     0.00  -0.00  -0.00     0.00   0.00  -0.00     0.00   0.00  -0.00
  12   6    -0.00   0.00   0.00     0.01   0.00  -0.00    -0.00  -0.00   0.00
  13   6     0.00   0.02   0.02    -0.00  -0.01  -0.01     0.00   0.00   0.00
  14   6     0.00  -0.00  -0.00     0.19  -0.04  -0.16    -0.04   0.01   0.03
  15   6     0.20  -0.04  -0.17     0.00  -0.00  -0.00    -0.00   0.00   0.00
  16   1    -0.00  -0.10  -0.09     0.00   0.03   0.03    -0.00  -0.00  -0.00
  17   6    -0.00  -0.01  -0.01     0.00   0.05   0.04    -0.00  -0.01  -0.01
  18   1    -0.01   0.00   0.01    -0.70   0.14   0.57     0.13  -0.02  -0.11
  19   6     0.01   0.01  -0.00    -0.00   0.00   0.00    -0.00  -0.00  -0.00
  20   1    -0.72   0.14   0.60    -0.00   0.00   0.00     0.01  -0.00  -0.01
  21   1     0.00   0.04   0.03    -0.01  -0.19  -0.17     0.00   0.04   0.04
  22   8     0.00  -0.00   0.00     0.00  -0.00   0.00     0.00  -0.00   0.00
  23   1     0.00   0.00  -0.00     0.00   0.00  -0.00     0.00   0.00  -0.00
  24   8    -0.00  -0.00   0.00     0.00  -0.00  -0.00    -0.00   0.00   0.00
  25   1    -0.00  -0.00  -0.00    -0.00   0.00   0.00     0.00   0.00  -0.00
  26   6    -0.00  -0.00   0.00    -0.00  -0.00  -0.01     0.00  -0.00   0.00
  27   1     0.01   0.01  -0.00    -0.00  -0.00  -0.00     0.00   0.00   0.00
  28   1    -0.00  -0.00  -0.00    -0.00   0.01   0.02     0.00  -0.00  -0.01
  29   1    -0.00  -0.00   0.00     0.01  -0.00  -0.00    -0.01   0.01   0.00
  30   6    -0.00  -0.00   0.00     0.00   0.00  -0.00    -0.00   0.00  -0.01
  31   1     0.00   0.00  -0.00    -0.00  -0.00   0.00     0.01   0.01  -0.00
  32   1     0.00  -0.00  -0.00    -0.00   0.00  -0.00    -0.00   0.00  -0.00
  33   1    -0.00   0.00  -0.00     0.00  -0.00   0.00    -0.00  -0.01   0.02
                     88                     89                     90
                        a                      a                      a 
 Frequencies --  3092.8800              3100.0575              3110.5930
 Red. masses --     1.7970                 1.8555                 1.8380
 Frc consts  --     0.0000                 0.0000                 0.0000
 IR Inten    --    47.2018                97.5223                45.2815
 Raman Activ --     0.0000                 0.0000                 0.0000
 Depolar     --     0.0000                 0.0000                 0.0000
 Atom AN      X      Y      Z        X      Y      Z        X      Y      Z
   1   6    -0.00   0.00  -0.00    -0.00  -0.00  -0.00     0.00  -0.00   0.00
   2   6     0.01   0.00  -0.01    -0.00  -0.00   0.00     0.00   0.00  -0.00
   3   6     0.00   0.01  -0.01    -0.00  -0.00   0.00     0.00   0.00  -0.00
   4   6    -0.01   0.01   0.00     0.00  -0.00  -0.00     0.00   0.00  -0.00
   5   6    -0.19  -0.03   0.16    -0.00   0.00   0.00    -0.00  -0.00   0.00
   6   6    -0.00   0.06  -0.06     0.00  -0.00   0.00     0.00  -0.01   0.01
   7   1     0.00  -0.05   0.05    -0.00   0.00  -0.00    -0.00  -0.00   0.00
   8   1     0.01  -0.24   0.22    -0.00   0.00  -0.00    -0.00   0.04  -0.04
   9   1    -0.02  -0.00   0.02     0.01   0.00  -0.01    -0.01  -0.00   0.01
  10   1     0.68   0.12  -0.58     0.00   0.00  -0.00     0.01   0.00  -0.01
  11   6    -0.00  -0.00   0.00     0.00  -0.00  -0.00    -0.00   0.00   0.00
  12   6     0.00   0.00  -0.00     0.00   0.00   0.00     0.01   0.01   0.00
  13   6    -0.00   0.00   0.00    -0.00  -0.02  -0.02     0.00   0.20   0.18
  14   6     0.00  -0.00  -0.00     0.06  -0.01  -0.05     0.01  -0.00  -0.01
  15   6     0.00  -0.00  -0.00    -0.01   0.00   0.01    -0.04   0.01   0.03
  16   1     0.00  -0.00  -0.00     0.00   0.08   0.08    -0.01  -0.69  -0.64
  17   6    -0.00   0.00   0.00    -0.01  -0.20  -0.18    -0.00  -0.02  -0.02
  18   1    -0.00   0.00   0.00    -0.19   0.04   0.15    -0.05   0.01   0.04
  19   6     0.00   0.00   0.00    -0.01  -0.01  -0.00    -0.00  -0.00  -0.00
  20   1    -0.00   0.00   0.00     0.03  -0.01  -0.02     0.10  -0.02  -0.09
  21   1    -0.00  -0.00  -0.00     0.04   0.68   0.62     0.00   0.07   0.06
  22   8     0.00   0.00  -0.00    -0.00   0.00   0.00    -0.00   0.00   0.00
  23   1     0.00  -0.01   0.00     0.00   0.00  -0.00     0.00  -0.00   0.00
  24   8    -0.00  -0.00  -0.00     0.00   0.00   0.00     0.00   0.00   0.00
  25   1     0.00   0.00  -0.00     0.01  -0.00  -0.01     0.00  -0.00  -0.00
  26   6     0.00   0.00  -0.00     0.00   0.00  -0.00    -0.00   0.00   0.00
  27   1    -0.01  -0.00   0.00    -0.00  -0.00   0.00    -0.00  -0.00  -0.00
  28   1    -0.00   0.00   0.00    -0.00   0.00   0.00     0.00  -0.00  -0.00
  29   1    -0.00   0.00   0.00     0.00  -0.00  -0.00     0.00  -0.00   0.00
  30   6     0.00  -0.00  -0.00     0.00   0.00   0.00    -0.00   0.00   0.00
  31   1    -0.00  -0.00  -0.00    -0.01  -0.00   0.00    -0.00   0.00  -0.00
  32   1    -0.00   0.00   0.00    -0.00   0.00   0.00     0.02  -0.01  -0.00
  33   1     0.00  -0.00   0.00     0.00   0.00  -0.00     0.00   0.00  -0.01
                     91                     92                     93
                        a                      a                      a 
 Frequencies --  3111.6083              3458.9003              3462.2227
 Red. masses --     1.8557                 1.8659                 1.8671
 Frc consts  --     0.0000                 0.0000                 0.0000
 IR Inten    --    64.3863               138.4897               130.6947
 Raman Activ --     0.0000                 0.0000                 0.0000
 Depolar     --     0.0000                 0.0000                 0.0000
 Atom AN      X      Y      Z        X      Y      Z        X      Y      Z
   1   6    -0.01   0.01  -0.00     0.00  -0.00  -0.00    -0.00  -0.00   0.00
   2   6    -0.01  -0.00   0.01    -0.00  -0.00   0.00    -0.00   0.00  -0.00
   3   6    -0.00  -0.01   0.01    -0.00   0.00   0.00     0.00  -0.00   0.00
   4   6     0.00  -0.00   0.00    -0.00   0.00  -0.00    -0.00   0.01  -0.00
   5   6     0.07   0.01  -0.06     0.00   0.00  -0.00     0.00  -0.00  -0.00
   6   6    -0.01   0.19  -0.18    -0.00   0.00  -0.00     0.00   0.00  -0.00
   7   1    -0.00   0.03  -0.02     0.00  -0.00   0.00    -0.00  -0.00   0.00
   8   1     0.03  -0.66   0.61     0.00  -0.00   0.00    -0.00  -0.00   0.00
   9   1     0.04   0.01  -0.04     0.00  -0.00  -0.00     0.00  -0.00  -0.00
  10   1    -0.24  -0.04   0.20    -0.00   0.00   0.00    -0.01  -0.00   0.01
  11   6     0.00   0.00  -0.00     0.00   0.00   0.00    -0.00   0.00  -0.00
  12   6     0.00   0.00  -0.00    -0.00   0.00   0.00    -0.00  -0.00   0.00
  13   6     0.00   0.01   0.01     0.00   0.00   0.00     0.00   0.00   0.00
  14   6    -0.00  -0.00   0.00     0.00  -0.00  -0.00     0.00  -0.00  -0.00
  15   6    -0.00   0.00   0.00    -0.00  -0.00   0.00     0.00   0.00   0.00
  16   1    -0.00  -0.04  -0.04    -0.00  -0.00  -0.00    -0.00  -0.00  -0.00
  17   6    -0.00  -0.00  -0.00    -0.00  -0.00  -0.00     0.00   0.00  -0.00
  18   1     0.00   0.00  -0.00    -0.00   0.00   0.00    -0.00   0.00   0.00
  19   6    -0.00  -0.00  -0.00     0.01   0.00  -0.00    -0.00  -0.00   0.00
  20   1     0.01  -0.00  -0.01     0.00   0.00   0.00     0.00  -0.00  -0.00
  21   1     0.00   0.01   0.01    -0.00   0.01   0.01    -0.00  -0.00  -0.00
  22   8    -0.00   0.00   0.00     0.00   0.00  -0.00     0.02   0.17  -0.17
  23   1     0.00   0.00  -0.00    -0.00  -0.00   0.00    -0.06  -0.68   0.69
  24   8     0.00   0.00   0.00     0.16  -0.06  -0.16    -0.00   0.00   0.00
  25   1     0.00  -0.00  -0.00    -0.68   0.22   0.66     0.00  -0.00  -0.00
  26   6     0.00   0.00  -0.00    -0.00  -0.00  -0.00     0.00   0.00  -0.00
  27   1    -0.01  -0.01   0.00    -0.00  -0.00   0.00    -0.00  -0.00   0.00
  28   1    -0.00   0.00   0.01    -0.00   0.00   0.00    -0.00   0.00   0.00
  29   1     0.00   0.00   0.00     0.00   0.00   0.00     0.00  -0.00   0.00
  30   6    -0.00   0.00   0.00     0.00   0.00   0.00     0.00   0.00   0.00
  31   1    -0.00  -0.00  -0.00    -0.00  -0.00   0.00    -0.00  -0.00  -0.00
  32   1     0.00  -0.00  -0.00     0.00   0.00   0.00     0.00  -0.00  -0.00
  33   1    -0.00   0.00  -0.00     0.00  -0.00   0.00    -0.00   0.00   0.00
