      -----------------------------------------------------------      
     |                   =====================                   |     
     |                           x T B                           |     
     |                   =====================                   |     
     |                         S. Grimme                         |     
     |          Mulliken Center for Theoretical Chemistry        |     
     |                    University of Bonn                     |     
      -----------------------------------------------------------      

   * xtb version 6.4.1 (afa7bdf) compiled by 'ehlert@majestix' on 2021-06-10

   xtb is free software: you can redistribute it and/or modify it under
   the terms of the GNU Lesser General Public License as published by
   the Free Software Foundation, either version 3 of the License, or
   (at your option) any later version.
   
   xtb is distributed in the hope that it will be useful,
   but WITHOUT ANY WARRANTY; without even the implied warranty of
   MERCHANTABILITY or FITNESS FOR A PARTICULAR PURPOSE.  See the
   GNU Lesser General Public License for more details.
   
   Cite this work as:
   * C. Bannwarth, E. Caldeweyher, S. Ehlert, A. Hansen, P. Pracht,
     J. Seibert, S. Spicher, S. Grimme, WIREs Comput. Mol. Sci., 2020, 11,
     e01493. DOI: 10.1002/wcms.1493
   
   for GFN2-xTB:
   * C. Bannwarth, S. Ehlert and S. Grimme., J. Chem. Theory Comput., 2019,
     15, 1652-1671. DOI: 10.1021/acs.jctc.8b01176
   for GFN1-xTB:
   * S. Grimme, C. Bannwarth, P. Shushkov, J. Chem. Theory Comput., 2017,
     13, 1989-2009. DOI: 10.1021/acs.jctc.7b00118
   for GFN0-xTB:
   * P. Pracht, E. Caldeweyher, S. Ehlert, S. Grimme, ChemRxiv, 2019, preprint.
     DOI: 10.26434/chemrxiv.8326202.v1
   for GFN-FF:
   * S. Spicher and S. Grimme, Angew. Chem. Int. Ed., 2020, 59, 15665-15673.
     DOI: 10.1002/anie.202004239
   
   for DFT-D4:
   * E. Caldeweyher, C. Bannwarth and S. Grimme, J. Chem. Phys., 2017,
     147, 034112. DOI: 10.1063/1.4993215
   * E. Caldeweyher, S. Ehlert, A. Hansen, H. Neugebauer, S. Spicher,
     C. Bannwarth and S. Grimme, J. Chem. Phys., 2019, 150, 154122.
     DOI: 10.1063/1.5090222
   * E. Caldeweyher, J.-M. Mewes, S. Ehlert and S. Grimme, Phys. Chem. Chem. Phys.
     2020, 22, 8499-8512. DOI: 10.1039/D0CP00502A
   
   for sTDA-xTB:
   * S. Grimme and C. Bannwarth, J. Chem. Phys., 2016, 145, 054103.
     DOI: 10.1063/1.4959605
   
   in the mass-spec context:
   * V. Asgeirsson, C. Bauer and S. Grimme, Chem. Sci., 2017, 8, 4879.
     DOI: 10.1039/c7sc00601b
   * J. Koopman and S. Grimme, ACS Omega 2019, 4, 12, 15120-15133.
     DOI: 10.1021/acsomega.9b02011
   
   for metadynamics refer to:
   * S. Grimme, J. Chem. Theory Comput., 2019, 155, 2847-2862
     DOI: 10.1021/acs.jctc.9b00143
   
   for SPH calculations refer to:
   * S. Spicher and S. Grimme, J. Chem. Theory Comput., 2021, 17, 1701-1714
     DOI: 10.1021/acs.jctc.0c01306
   
   with help from (in alphabetical order)
   P. Atkinson, C. Bannwarth, F. Bohle, G. Brandenburg, E. Caldeweyher
   M. Checinski, S. Dohm, S. Ehlert, S. Ehrlich, I. Gerasimov, J. Koopman
   C. Lavigne, S. Lehtola, F. März, M. Müller, F. Musil, H. Neugebauer
   J. Pisarek, C. Plett, P. Pracht, J. Seibert, P. Shushkov, S. Spicher
   M. Stahn, M. Steiner, T. Strunk, J. Stückrath, T. Rose, and J. Unsleber
   
 * started run on 2021/11/15 at 09:23:10.540     

           -------------------------------------------------
          |                Calculation Setup                |
           -------------------------------------------------

          program call               : xtb 38_anisole.xyz --gfn2 --chrg 0 --uhf 0 --alpb water -P 1
          coordinate file            : 38_anisole.xyz
          omp threads                :                     1
          number of atoms            :                    16
          number of electrons        :                    42
          charge                     :                     0
          spin                       :                   0.0
          first test random number   :      0.28617142016281

   ID    Z sym.   atoms
    1    6 C      1-6, 10
    2    1 H      7, 8, 11-16
    3    8 O      9

           -------------------------------------------------
          |                 G F N 2 - x T B                 |
           -------------------------------------------------

        Reference                      10.1021/acs.jctc.8b01176
      * Hamiltonian:
        H0-scaling (s, p, d)           1.850000    2.230000    2.230000
        zeta-weighting                 0.500000
      * Dispersion:
        s8                             2.700000
        a1                             0.520000
        a2                             5.000000
        s9                             5.000000
      * Repulsion:
        kExp                           1.500000    1.000000
        rExp                           1.000000
      * Coulomb:
        alpha                          2.000000
        third order                    shell-resolved
        anisotropic                    true
        a3                             3.000000
        a5                             4.000000
        cn-shift                       1.200000
        cn-exp                         4.000000
        max-rad                        5.000000

      * Solvation model:               ALPB
        Solvent                        water
        Parameter file                 internal GFN2-xTB/ALPB
        Dielectric constant                8.0200E+01
        Reference state                gsolv [1 M gas/solution]
        Free energy shift                  1.0808E-03 Eh       6.7819E-01 kcal/mol
        Temperature                        2.9815E+02 K
        Density                            1.0000E+00 kg/L
        Solvent mass                       1.8000E+01 g/mol
        Interaction kernel             P16
        Born radius scaling (c1)           1.4744E+00
        Born radii integrator          GBOBC
        Born offset                        0.0000E+00 a0       0.0000E+00 AA
        H-bond correction              true
        Ion screening                  false
        Surface tension                    1.0000E-05 Eh       1.5569E+01 dyn/cm
        Grid points                               230 per atom
q/qsh data taken from xtbrestart
CAMM data taken from xtbrestart

          ...................................................
          :                      SETUP                      :
          :.................................................:
          :  # basis functions                  40          :
          :  # atomic orbitals                  40          :
          :  # shells                           24          :
          :  # electrons                        42          :
          :  max. iterations                   250          :
          :  Hamiltonian                  GFN2-xTB          :
          :  restarted?                       true          :
          :  GBSA solvation                   true          :
          :  PC potential                    false          :
          :  electronic temp.          300.0000000     K    :
          :  accuracy                    1.0000000          :
          :  -> integral cutoff          0.2500000E+02      :
          :  -> integral neglect         0.1000000E-07      :
          :  -> SCF convergence          0.1000000E-05 Eh   :
          :  -> wf. convergence          0.1000000E-03 e    :
          :  Broyden damping             0.4000000          :
          ...................................................

 iter      E             dE          RMSdq      gap      omega  full diag
   1    -23.4633444 -0.234633E+02  0.102E-04    4.20       0.0  T
   2    -23.4633444 -0.211244E-10  0.659E-05    4.20     379.5  T
   3    -23.4633444 -0.555644E-11  0.463E-05    4.20     539.4  T

   *** convergence criteria satisfied after 3 iterations ***

         #    Occupation            Energy/Eh            Energy/eV
      -------------------------------------------------------------
         1        2.0000           -0.7149450             -19.4546
       ...           ...                  ...                  ...
        15        2.0000           -0.4750519             -12.9268
        16        2.0000           -0.4602354             -12.5236
        17        2.0000           -0.4455943             -12.1252
        18        2.0000           -0.4338828             -11.8066
        19        2.0000           -0.4195985             -11.4179
        20        2.0000           -0.4024529             -10.9513
        21        2.0000           -0.3788329             -10.3086 (HOMO)
        22                         -0.2246692              -6.1136 (LUMO)
        23                         -0.2145991              -5.8395
        24                         -0.0929028              -2.5280
        25                          0.0189209               0.5149
        26                          0.1069898               2.9113
       ...                                ...                  ...
        40                          0.6483424              17.6423
      -------------------------------------------------------------
                  HL-Gap            0.1541637 Eh            4.1950 eV
             Fermi-level           -0.3017511 Eh           -8.2111 eV

 SCC (total)                   0 d,  0 h,  0 min,  0.006 sec
 SCC setup                      ...        0 min,  0.000 sec (  6.713%)
 Dispersion                     ...        0 min,  0.000 sec (  1.702%)
 classical contributions        ...        0 min,  0.000 sec (  0.364%)
 integral evaluation            ...        0 min,  0.001 sec ( 20.529%)
 iterations                     ...        0 min,  0.002 sec ( 28.534%)
 molecular gradient             ...        0 min,  0.002 sec ( 39.281%)
 printout                       ...        0 min,  0.000 sec (  2.506%)

         :::::::::::::::::::::::::::::::::::::::::::::::::::::
         ::                     SUMMARY                     ::
         :::::::::::::::::::::::::::::::::::::::::::::::::::::
         :: total energy             -23.114939507566 Eh    ::
         :: total w/o Gsasa/hb       -23.114424748401 Eh    ::
         :: gradient norm              0.019321039558 Eh/a0 ::
         :: HOMO-LUMO gap              4.195007198347 eV    ::
         ::.................................................::
         :: SCC energy               -23.463344406121 Eh    ::
         :: -> isotropic ES            0.019577916791 Eh    ::
         :: -> anisotropic ES          0.003382538175 Eh    ::
         :: -> anisotropic XC          0.011214561755 Eh    ::
         :: -> dispersion             -0.011440440860 Eh    ::
         :: -> Gsolv                  -0.003245001527 Eh    ::
         ::    -> Gelec               -0.002730242363 Eh    ::
         ::    -> Gsasa               -0.000681703485 Eh    ::
         ::    -> Ghb                 -0.000913815378 Eh    ::
         ::    -> Gshift               0.001080759698 Eh    ::
         :: repulsion energy           0.348392063839 Eh    ::
         :: add. restraining           0.000000000000 Eh    ::
         :: total charge               0.000000000000 e     ::
         :::::::::::::::::::::::::::::::::::::::::::::::::::::

           -------------------------------------------------
          |                Property Printout                |
           -------------------------------------------------

    * Orbital Energies and Occupations

         #    Occupation            Energy/Eh            Energy/eV
      -------------------------------------------------------------
         1        2.0000           -0.7149450             -19.4546
       ...           ...                  ...                  ...
         9        2.0000           -0.5498446             -14.9620
        10        2.0000           -0.5341087             -14.5338
        11        2.0000           -0.5115870             -13.9210
        12        2.0000           -0.4922510             -13.3948
        13        2.0000           -0.4806090             -13.0780
        14        2.0000           -0.4802056             -13.0671
        15        2.0000           -0.4750519             -12.9268
        16        2.0000           -0.4602354             -12.5236
        17        2.0000           -0.4455943             -12.1252
        18        2.0000           -0.4338828             -11.8066
        19        2.0000           -0.4195985             -11.4179
        20        2.0000           -0.4024529             -10.9513
        21        2.0000           -0.3788329             -10.3086 (HOMO)
        22                         -0.2246692              -6.1136 (LUMO)
        23                         -0.2145991              -5.8395
        24                         -0.0929028              -2.5280
        25                          0.0189209               0.5149
        26                          0.1069898               2.9113
        27                          0.1119307               3.0458
        28                          0.1415338               3.8513
        29                          0.1544009               4.2015
        30                          0.1745258               4.7491
        31                          0.1791013               4.8736
        32                          0.1981184               5.3911
       ...                                ...                  ...
        40                          0.6483424              17.6423
      -------------------------------------------------------------
                  HL-Gap            0.1541637 Eh            4.1950 eV
             Fermi-level           -0.3017511 Eh           -8.2111 eV

     #   Z          covCN         q      C6AA      α(0)
     1   6 C        2.910    -0.072    29.788     8.950
     2   6 C        2.859     0.140    24.953     8.188
     3   6 C        2.913    -0.061    29.523     8.910
     4   6 C        2.915    -0.036    28.885     8.813
     5   6 C        2.910    -0.048    29.194     8.860
     6   6 C        2.916    -0.037    28.923     8.819
     7   1 H        0.925     0.041     2.432     2.439
     8   1 H        0.925     0.045     2.387     2.416
     9   8 O        1.703    -0.309    19.143     5.907
    10   6 C        3.639     0.022    20.566     6.523
    11   1 H        0.924     0.054     2.273     2.358
    12   1 H        0.924     0.078     1.996     2.210
    13   1 H        0.924     0.054     2.273     2.358
    14   1 H        0.925     0.046     2.372     2.408
    15   1 H        0.925     0.040     2.447     2.446
    16   1 H        0.925     0.043     2.413     2.429

 Mol. C6AA /au·bohr⁶  :       2815.105955
 Mol. C8AA /au·bohr⁸  :      66749.946967
 Mol. α(0) /au        :         84.033292


Wiberg/Mayer (AO) data.
largest (>0.10) Wiberg bond orders for each atom

 ---------------------------------------------------------------------------
     #   Z sym  total        # sym  WBO       # sym  WBO       # sym  WBO
 ---------------------------------------------------------------------------
     1   6 C    3.986 --     6 C    1.434     2 C    1.379     8 H    0.965
                             4 C    0.105
     2   6 C    3.931 --     1 C    1.379     3 C    1.353     9 O    1.053
     3   6 C    3.987 --     4 C    1.467     2 C    1.353    14 H    0.968
                             6 C    0.111
     4   6 C    3.990 --     3 C    1.467     5 C    1.419    16 H    0.970
                             1 C    0.105
     5   6 C    3.990 --     6 C    1.449     4 C    1.419    15 H    0.971
     6   6 C    3.991 --     5 C    1.449     1 C    1.434     7 H    0.971
                             3 C    0.111
     7   1 H    0.998 --     6 C    0.971
     8   1 H    0.998 --     1 C    0.965
     9   8 O    2.203 --     2 C    1.053    10 C    0.970
    10   6 C    3.932 --    12 H    0.978    11 H    0.977    13 H    0.977
                             9 O    0.970
    11   1 H    0.997 --    10 C    0.977
    12   1 H    0.993 --    10 C    0.978
    13   1 H    0.997 --    10 C    0.977
    14   1 H    0.998 --     3 C    0.968
    15   1 H    0.998 --     5 C    0.971
    16   1 H    0.998 --     4 C    0.970
 ---------------------------------------------------------------------------

Topologies differ in total number of bonds
Writing topology from bond orders to xtbtopo.mol

molecular dipole:
                 x           y           z       tot (Debye)
 q only:       -0.249       0.490      -0.001
   full:       -0.296       0.590      -0.001       1.677
molecular quadrupole (traceless):
                xx          xy          yy          xz          yz          zz
 q only:        4.474      -3.346      -1.202       0.003       0.001      -3.272
  q+dip:        4.765      -3.456       0.917       0.002       0.002      -5.683
   full:        4.137      -3.757      -0.527       0.003       0.001      -3.610


           -------------------------------------------------
          | TOTAL ENERGY              -23.114939507566 Eh   |
          | GRADIENT NORM               0.019321039558 Eh/α |
          | HOMO-LUMO GAP               4.195007198347 eV   |
           -------------------------------------------------

------------------------------------------------------------------------
 * finished run on 2021/11/15 at 09:23:10.571     
------------------------------------------------------------------------
 total:
 * wall-time:     0 d,  0 h,  0 min,  0.030 sec
 *  cpu-time:     0 d,  0 h,  0 min,  0.016 sec
 * ratio c/w:     0.516 speedup
 SCF:
 * wall-time:     0 d,  0 h,  0 min,  0.007 sec
 *  cpu-time:     0 d,  0 h,  0 min,  0.016 sec
 * ratio c/w:     2.366 speedup

