      -----------------------------------------------------------      
     |                   =====================                   |     
     |                           x T B                           |     
     |                   =====================                   |     
     |                         S. Grimme                         |     
     |          Mulliken Center for Theoretical Chemistry        |     
     |                    University of Bonn                     |     
      -----------------------------------------------------------      

   * xtb version 6.4.1 (afa7bdf) compiled by 'ehlert@majestix' on 2021-06-10

   xtb is free software: you can redistribute it and/or modify it under
   the terms of the GNU Lesser General Public License as published by
   the Free Software Foundation, either version 3 of the License, or
   (at your option) any later version.
   
   xtb is distributed in the hope that it will be useful,
   but WITHOUT ANY WARRANTY; without even the implied warranty of
   MERCHANTABILITY or FITNESS FOR A PARTICULAR PURPOSE.  See the
   GNU Lesser General Public License for more details.
   
   Cite this work as:
   * C. Bannwarth, E. Caldeweyher, S. Ehlert, A. Hansen, P. Pracht,
     J. Seibert, S. Spicher, S. Grimme, WIREs Comput. Mol. Sci., 2020, 11,
     e01493. DOI: 10.1002/wcms.1493
   
   for GFN2-xTB:
   * C. Bannwarth, S. Ehlert and S. Grimme., J. Chem. Theory Comput., 2019,
     15, 1652-1671. DOI: 10.1021/acs.jctc.8b01176
   for GFN1-xTB:
   * S. Grimme, C. Bannwarth, P. Shushkov, J. Chem. Theory Comput., 2017,
     13, 1989-2009. DOI: 10.1021/acs.jctc.7b00118
   for GFN0-xTB:
   * P. Pracht, E. Caldeweyher, S. Ehlert, S. Grimme, ChemRxiv, 2019, preprint.
     DOI: 10.26434/chemrxiv.8326202.v1
   for GFN-FF:
   * S. Spicher and S. Grimme, Angew. Chem. Int. Ed., 2020, 59, 15665-15673.
     DOI: 10.1002/anie.202004239
   
   for DFT-D4:
   * E. Caldeweyher, C. Bannwarth and S. Grimme, J. Chem. Phys., 2017,
     147, 034112. DOI: 10.1063/1.4993215
   * E. Caldeweyher, S. Ehlert, A. Hansen, H. Neugebauer, S. Spicher,
     C. Bannwarth and S. Grimme, J. Chem. Phys., 2019, 150, 154122.
     DOI: 10.1063/1.5090222
   * E. Caldeweyher, J.-M. Mewes, S. Ehlert and S. Grimme, Phys. Chem. Chem. Phys.
     2020, 22, 8499-8512. DOI: 10.1039/D0CP00502A
   
   for sTDA-xTB:
   * S. Grimme and C. Bannwarth, J. Chem. Phys., 2016, 145, 054103.
     DOI: 10.1063/1.4959605
   
   in the mass-spec context:
   * V. Asgeirsson, C. Bauer and S. Grimme, Chem. Sci., 2017, 8, 4879.
     DOI: 10.1039/c7sc00601b
   * J. Koopman and S. Grimme, ACS Omega 2019, 4, 12, 15120-15133.
     DOI: 10.1021/acsomega.9b02011
   
   for metadynamics refer to:
   * S. Grimme, J. Chem. Theory Comput., 2019, 155, 2847-2862
     DOI: 10.1021/acs.jctc.9b00143
   
   for SPH calculations refer to:
   * S. Spicher and S. Grimme, J. Chem. Theory Comput., 2021, 17, 1701-1714
     DOI: 10.1021/acs.jctc.0c01306
   
   with help from (in alphabetical order)
   P. Atkinson, C. Bannwarth, F. Bohle, G. Brandenburg, E. Caldeweyher
   M. Checinski, S. Dohm, S. Ehlert, S. Ehrlich, I. Gerasimov, J. Koopman
   C. Lavigne, S. Lehtola, F. März, M. Müller, F. Musil, H. Neugebauer
   J. Pisarek, C. Plett, P. Pracht, J. Seibert, P. Shushkov, S. Spicher
   M. Stahn, M. Steiner, T. Strunk, J. Stückrath, T. Rose, and J. Unsleber
   
 * started run on 2021/11/15 at 09:36:20.861     

           -------------------------------------------------
          |                Calculation Setup                |
           -------------------------------------------------

          program call               : xtb 33_1,2,4-trimethoxybenzene.xyz --gfn2 --chrg 0 --uhf 0 --alpb water --ohess -P 1
          coordinate file            : 33_1,2,4-trimethoxybenzene.xyz
          omp threads                :                     1
          number of atoms            :                    24
          number of electrons        :                    66
          charge                     :                     0
          spin                       :                   0.0
          first test random number   :      0.35628897104625

   ID    Z sym.   atoms
    1    6 C      1-6, 10, 15, 21
    2    1 H      7, 8, 11-13, 16-19, 22-24
    3    8 O      9, 14, 20

           -------------------------------------------------
          |                 G F N 2 - x T B                 |
           -------------------------------------------------

        Reference                      10.1021/acs.jctc.8b01176
      * Hamiltonian:
        H0-scaling (s, p, d)           1.850000    2.230000    2.230000
        zeta-weighting                 0.500000
      * Dispersion:
        s8                             2.700000
        a1                             0.520000
        a2                             5.000000
        s9                             5.000000
      * Repulsion:
        kExp                           1.500000    1.000000
        rExp                           1.000000
      * Coulomb:
        alpha                          2.000000
        third order                    shell-resolved
        anisotropic                    true
        a3                             3.000000
        a5                             4.000000
        cn-shift                       1.200000
        cn-exp                         4.000000
        max-rad                        5.000000

      * Solvation model:               ALPB
        Solvent                        water
        Parameter file                 internal GFN2-xTB/ALPB
        Dielectric constant                8.0200E+01
        Reference state                gsolv [1 M gas/solution]
        Free energy shift                  1.0808E-03 Eh       6.7819E-01 kcal/mol
        Temperature                        2.9815E+02 K
        Density                            1.0000E+00 kg/L
        Solvent mass                       1.8000E+01 g/mol
        Interaction kernel             P16
        Born radius scaling (c1)           1.4744E+00
        Born radii integrator          GBOBC
        Born offset                        0.0000E+00 a0       0.0000E+00 AA
        H-bond correction              true
        Ion screening                  false
        Surface tension                    1.0000E-05 Eh       1.5569E+01 dyn/cm
        Grid points                               230 per atom

          ...................................................
          :                      SETUP                      :
          :.................................................:
          :  # basis functions                  60          :
          :  # atomic orbitals                  60          :
          :  # shells                           36          :
          :  # electrons                        66          :
          :  max. iterations                   250          :
          :  Hamiltonian                  GFN2-xTB          :
          :  restarted?                      false          :
          :  GBSA solvation                   true          :
          :  PC potential                    false          :
          :  electronic temp.          300.0000000     K    :
          :  accuracy                    1.0000000          :
          :  -> integral cutoff          0.2500000E+02      :
          :  -> integral neglect         0.1000000E-07      :
          :  -> SCF convergence          0.1000000E-05 Eh   :
          :  -> wf. convergence          0.1000000E-03 e    :
          :  Broyden damping             0.4000000          :
          ...................................................

 iter      E             dE          RMSdq      gap      omega  full diag
   1    -37.9741991 -0.379742E+02  0.490E+00    3.83       0.0  T
   2    -38.0191147 -0.449156E-01  0.259E+00    3.81       1.0  T
   3    -38.0175518  0.156288E-02  0.877E-01    3.70       1.0  T
   4    -38.0208677 -0.331590E-02  0.320E-01    3.78       1.0  T
   5    -38.0217297 -0.862012E-03  0.945E-02    3.79       1.0  T
   6    -38.0217302 -0.542042E-06  0.461E-02    3.78       1.0  T
   7    -38.0217421 -0.118875E-04  0.794E-03    3.79       2.6  T
   8    -38.0217423 -0.208981E-06  0.341E-03    3.79       6.0  T
   9    -38.0217424 -0.176341E-07  0.895E-04    3.79      22.8  T
  10    -38.0217424 -0.600891E-08  0.445E-04    3.79      45.9  T

   *** convergence criteria satisfied after 10 iterations ***

         #    Occupation            Energy/Eh            Energy/eV
      -------------------------------------------------------------
         1        2.0000           -0.7154022             -19.4671
       ...           ...                  ...                  ...
        27        2.0000           -0.4576998             -12.4546
        28        2.0000           -0.4504128             -12.2564
        29        2.0000           -0.4454945             -12.1225
        30        2.0000           -0.4276438             -11.6368
        31        2.0000           -0.4223416             -11.4925
        32        2.0000           -0.3893633             -10.5951
        33        2.0000           -0.3605685              -9.8116 (HOMO)
        34                         -0.2212880              -6.0216 (LUMO)
        35                         -0.2072486              -5.6395
        36                         -0.0897711              -2.4428
        37                          0.0090517               0.2463
        38                          0.0123979               0.3374
       ...                                ...                  ...
        60                          0.6659255              18.1208
      -------------------------------------------------------------
                  HL-Gap            0.1392805 Eh            3.7900 eV
             Fermi-level           -0.2909283 Eh           -7.9166 eV

 SCC (total)                   0 d,  0 h,  0 min,  0.015 sec
 SCC setup                      ...        0 min,  0.001 sec (  3.740%)
 Dispersion                     ...        0 min,  0.000 sec (  1.296%)
 classical contributions        ...        0 min,  0.000 sec (  0.195%)
 integral evaluation            ...        0 min,  0.002 sec ( 16.177%)
 iterations                     ...        0 min,  0.007 sec ( 43.390%)
 molecular gradient             ...        0 min,  0.005 sec ( 33.893%)
 printout                       ...        0 min,  0.000 sec (  1.173%)

         :::::::::::::::::::::::::::::::::::::::::::::::::::::
         ::                     SUMMARY                     ::
         :::::::::::::::::::::::::::::::::::::::::::::::::::::
         :: total energy             -37.578136409081 Eh    ::
         :: total w/o Gsasa/hb       -37.577857303789 Eh    ::
         :: gradient norm              0.020058456526 Eh/a0 ::
         :: HOMO-LUMO gap              3.790016672493 eV    ::
         ::.................................................::
         :: SCC energy               -38.021742362874 Eh    ::
         :: -> isotropic ES            0.055797190920 Eh    ::
         :: -> anisotropic ES          0.005631765480 Eh    ::
         :: -> anisotropic XC          0.007618175380 Eh    ::
         :: -> dispersion             -0.018870399577 Eh    ::
         :: -> Gsolv                  -0.009159606654 Eh    ::
         ::    -> Gelec               -0.008880501362 Eh    ::
         ::    -> Gsasa                0.000652122897 Eh    ::
         ::    -> Ghb                 -0.002011987887 Eh    ::
         ::    -> Gshift               0.001080759698 Eh    ::
         :: repulsion energy           0.443601434588 Eh    ::
         :: add. restraining           0.000000000000 Eh    ::
         :: total charge              -0.000000000000 e     ::
         :::::::::::::::::::::::::::::::::::::::::::::::::::::

      ----------------------------------------------------------- 
     |                   =====================                   |
     |                        A N C O P T                        |
     |                   =====================                   |
     |               Approximate Normal Coordinate               |
     |                Rational Function Optimizer                |
      ----------------------------------------------------------- 

          ...................................................
          :                      SETUP                      :
          :.................................................:
          :   optimization level            normal          :
          :   max. optcycles                   200          :
          :   ANC micro-cycles                  20          :
          :   degrees of freedom                66          :
          :.................................................:
          :   RF solver                   davidson          :
          :   write xtbopt.log                true          :
          :   linear?                        false          :
          :   energy convergence         0.5000000E-05 Eh   :
          :   grad. convergence          0.1000000E-02 Eh/α :
          :   maximium RF displ.         1.0000000          :
          :   Hlow (freq-cutoff)         0.1000000E-01      :
          :   Hmax (freq-cutoff)         5.0000000          :
          :   S6 in model hess.         20.0000000          :
          ...................................................

generating ANC from model Hessian ...
Using Lindh-Hessian (1995)
 Shifting diagonal of input Hessian by   8.770973663393675E-003
 Lowest  eigenvalues of input Hessian
    0.000000    0.000000    0.000000    0.000000    0.000000    0.000000
    0.010000    0.011410    0.012001    0.013127    0.013664    0.014143
    0.014171    0.017036    0.021086    0.024580    0.028922    0.033242
 Highest eigenvalues
    1.560873    1.763010    1.859975    1.897638    2.046324    2.147055
 

........................................................................
.............................. CYCLE    1 ..............................
........................................................................
   1    -38.0217424 -0.380217E+02  0.188E-04    3.79       0.0  T
   2    -38.0217424 -0.694698E-10  0.128E-04    3.79     159.2  T
   3    -38.0217424 -0.243716E-10  0.678E-05    3.79     301.2  T
     SCC iter.                  ...        0 min,  0.003 sec
     gradient                   ...        0 min,  0.008 sec
 * total energy  :   -37.5781364 Eh     change       -0.1302638E-08 Eh
   gradient norm :     0.0200606 Eh/α   predicted     0.0000000E+00 (-100.00%)
   displ. norm   :     0.1034166 α      lambda       -0.1243419E-02
   maximum displ.:     0.0461603 α      in ANC's #12, #6, #31, ...

........................................................................
.............................. CYCLE    2 ..............................
........................................................................
   1    -38.0349368 -0.380349E+02  0.886E-02    3.83       0.0  T
   2    -38.0349386 -0.183733E-05  0.538E-02    3.83       1.0  T
   3    -38.0349370  0.158574E-05  0.107E-02    3.83       1.9  T
   4    -38.0349393 -0.228059E-05  0.218E-03    3.83       9.4  T
   5    -38.0349393 -0.130825E-07  0.111E-03    3.83      18.3  T
   6    -38.0349393 -0.605832E-08  0.539E-04    3.83      37.8  T
   7    -38.0349393 -0.978872E-09  0.243E-04    3.83      83.9  T
     SCC iter.                  ...        0 min,  0.005 sec
     gradient                   ...        0 min,  0.005 sec
 * total energy  :   -37.5789029 Eh     change       -0.7665320E-03 Eh
   gradient norm :     0.0055013 Eh/α   predicted    -0.6283603E-03 ( -18.03%)
   displ. norm   :     0.0538799 α      lambda       -0.1183801E-03
   maximum displ.:     0.0314775 α      in ANC's #6, #4, #12, ...

........................................................................
.............................. CYCLE    3 ..............................
........................................................................
   1    -38.0386626 -0.380387E+02  0.349E-02    3.84       0.0  T
   2    -38.0386630 -0.420823E-06  0.208E-02    3.84       1.0  T
   3    -38.0386627  0.324513E-06  0.599E-03    3.84       3.4  T
   4    -38.0386631 -0.458362E-06  0.965E-04    3.84      21.1  T
   5    -38.0386631 -0.413542E-08  0.463E-04    3.84      44.1  T
     SCC iter.                  ...        0 min,  0.004 sec
     gradient                   ...        0 min,  0.005 sec
 * total energy  :   -37.5789704 Eh     change       -0.6748120E-04 Eh
   gradient norm :     0.0019163 Eh/α   predicted    -0.5937530E-04 ( -12.01%)
   displ. norm   :     0.0431161 α      lambda       -0.1278431E-04
   maximum displ.:     0.0293169 α      in ANC's #6, #4, #14, ...

........................................................................
.............................. CYCLE    4 ..............................
........................................................................
   1    -38.0388027 -0.380388E+02  0.187E-02    3.84       0.0  T
   2    -38.0388030 -0.234648E-06  0.113E-02    3.84       1.8  T
   3    -38.0388028  0.144902E-06  0.433E-03    3.84       4.7  T
   4    -38.0388030 -0.211626E-06  0.591E-04    3.84      34.5  T
   5    -38.0388030 -0.214754E-08  0.286E-04    3.84      71.4  T
     SCC iter.                  ...        0 min,  0.004 sec
     gradient                   ...        0 min,  0.005 sec
 * total energy  :   -37.5789818 Eh     change       -0.1133619E-04 Eh
   gradient norm :     0.0008813 Eh/α   predicted    -0.6439688E-05 ( -43.19%)
   displ. norm   :     0.0224376 α      lambda       -0.3207500E-05
   maximum displ.:     0.0168129 α      in ANC's #4, #6, #31, ...

........................................................................
.............................. CYCLE    5 ..............................
........................................................................
   1    -38.0381357 -0.380381E+02  0.728E-03    3.84       0.0  T
   2    -38.0381357 -0.210008E-07  0.450E-03    3.84       4.5  T
   3    -38.0381357  0.266214E-07  0.142E-03    3.84      14.4  T
   4    -38.0381357 -0.352843E-07  0.207E-04    3.84      98.5  T
   5    -38.0381357 -0.103064E-09  0.125E-04    3.84     163.5  T
     SCC iter.                  ...        0 min,  0.004 sec
     gradient                   ...        0 min,  0.005 sec
 * total energy  :   -37.5789844 Eh     change       -0.2661233E-05 Eh
   gradient norm :     0.0004770 Eh/α   predicted    -0.1639473E-05 ( -38.39%)
   displ. norm   :     0.0227506 α      lambda        0.2536996E-05
   maximum displ.:     0.0170664 α      in ANC's #4, #6, #31, ...

   *** GEOMETRY OPTIMIZATION CONVERGED AFTER 5 ITERATIONS ***

------------------------------------------------------------------------
 total energy gain   :        -0.0008480 Eh       -0.5321 kcal/mol
 total RMSD          :         0.0408499 a0        0.0216 Å
 total power (kW/mol):        -0.4452910 (step)  -31.9925 (real)
------------------------------------------------------------------------

 ANCopt (total)                0 d,  0 h,  0 min,  0.070 sec
 optimizer setup                ...        0 min,  0.000 sec (  0.342%)
 model hessian                  ...        0 min,  0.004 sec (  5.261%)
 ANC generation                 ...        0 min,  0.001 sec (  0.984%)
 coordinate transformation      ...        0 min,  0.000 sec (  0.067%)
 single point calculation       ...        0 min,  0.063 sec ( 90.405%)
 optimization log               ...        0 min,  0.001 sec (  1.988%)
 hessian update                 ...        0 min,  0.000 sec (  0.060%)
 rational function              ...        0 min,  0.000 sec (  0.411%)

================
 final structure:
================
24
 xtb: 6.4.1 (afa7bdf)
C         1.62557315890416    0.00254025190379   -0.00002331636569
C         0.67520211246286    1.02838878284131   -0.00001966067892
C        -0.67440765295020    0.74184228875736    0.00001874956454
C        -1.10056519624906   -0.60557429596550    0.00004807362961
C        -0.15190836268797   -1.60796219277641    0.00005168019981
C         1.20847589301149   -1.31490842956553    0.00001619536868
H        -0.45120963297207   -2.64277670120315    0.00008487644314
H         1.91180210539250   -2.13024184291181    0.00001428596035
O        -2.45790840812215   -0.79537827119533    0.00007411100691
C        -2.94267684797461   -2.12351680102029   -0.00023075522525
H        -2.61975257937350   -2.66297841282135    0.89443422411533
H        -4.02623740322530   -2.03011234064703   -0.00038285708888
H        -2.61946818374030   -2.66266205513051   -0.89498324341334
O        -1.67017798653092    1.67317386692311    0.00003412381439
C        -1.30935322338805    3.04127194904363   -0.00009120239662
H        -0.73531192858854    3.29783018621626   -0.89425351769176
H        -2.25227426112305    3.58304611475443   -0.00008893159873
H        -0.73522672612810    3.29797729076738    0.89397435032850
H         1.04066216629775    2.04132463076255   -0.00005382339141
O         2.92844744035109    0.42044520001957   -0.00007372716927
C         3.94702182965660   -0.56154603908716    0.00008711283927
H         4.88102146655252   -0.00430968098343    0.00012057193560
H         3.89148412428248   -1.18762801500104    0.89441467800757
H         3.89163809614239   -1.18777148368086   -0.89414999819385
 
 Bond Distances (Angstroems)
 ---------------------------
C1-C2=1.3984         C1-C6=1.3819         C1-O20=1.3683        C2-C1=1.3984         C2-C3=1.3797         C2-H19=1.0768        
C3-C2=1.3797         C3-C4=1.4132         C3-O14=1.3634        C4-C3=1.4132         C4-C5=1.3801         C4-O9=1.3705         
C5-C4=1.3801         C5-C6=1.3916         C5-H7=1.0772         C6-C1=1.3819         C6-C5=1.3916         C6-H8=1.0768         
H7-C5=1.0772         H8-C6=1.0768         O9-C4=1.3705         O9-C10=1.4138        C10-O9=1.4138        C10-H11=1.0935       
C10-H12=1.0876       C10-H13=1.0935       H11-C10=1.0935       H12-C10=1.0876       H13-C10=1.0935       O14-C3=1.3634        
O14-C15=1.4149       C15-O14=1.4149       C15-H16=1.0931       C15-H17=1.0875       C15-H18=1.0931       H16-C15=1.0931       
H17-C15=1.0875       H18-C15=1.0931       H19-C2=1.0768        O20-C1=1.3683        O20-C21=1.4149       C21-O20=1.4149       
C21-H22=1.0876       C21-H23=1.0931       C21-H24=1.0931       H22-C21=1.0876       H23-C21=1.0931       H24-C21=1.0931       
 C  H  Rav=1.0877 sigma=0.0067  Rmin=1.0768  Rmax=1.0935    12
 C  C  Rav=1.3908 sigma=0.0121  Rmin=1.3797  Rmax=1.4132     6
 O  C  Rav=1.3910 sigma=0.0237  Rmin=1.3634  Rmax=1.4149     6
 
 selected bond angles (degree)
 --------------------
C6-C1-C2=119.62                O20-C1-C2=115.03               O20-C1-C6=125.35               C3-C2-C1=120.83                
H19-C2-C1=117.35               H19-C2-C3=121.83               C4-C3-C2=119.54                O14-C3-C2=124.93               
O14-C3-C4=115.53               C5-C4-C3=119.03                O9-C4-C3=115.51                O9-C4-C5=125.46                
C6-C5-C4=121.27                H7-C5-C4=120.45                H7-C5-C6=118.29                C5-C6-C1=119.72                
H8-C6-C1=121.65                H8-C6-C5=118.62                C10-O9-C4=118.01               H11-C10-O9=111.22              
H12-C10-O9=105.13              H12-C10-H11=109.68             H13-C10-O9=111.22              H13-C10-H11=109.81             
H13-C10-H12=109.68             
 
 selected dihedral angles (degree)
 ---------------------------------
C3-C2-C1-C6=  0.00            C3-C2-C1-O20=180.00           H19-C2-C1-C6=180.00           H19-C2-C1-O20=  0.00          
C4-C3-C2-C1=  0.00            C4-C3-C2-H19=180.00           O14-C3-C2-C1=180.00           O14-C3-C2-H19=  0.00          
C5-C4-C3-C2=  0.00            C5-C4-C3-O14=180.00           O9-C4-C3-C2=180.00            O9-C4-C3-O14=  0.00           
C6-C5-C4-C3=  0.00            C6-C5-C4-O9=180.00            H7-C5-C4-C3=180.00            H7-C5-C4-O9=  0.00            
C5-C6-C1-C2=  0.00            C5-C6-C1-O20=180.00           H8-C6-C1-C2=180.00            H8-C6-C1-O20=  0.00           
C1-C6-C5-C4=  0.00            C1-C6-C5-H7=180.00            H8-C6-C5-C4=180.00            H8-C6-C5-H7=  0.00            
C10-O9-C4-C3=179.98           C10-O9-C4-C5=  0.00           H11-C10-O9-C4= 61.38          H12-C10-O9-C4=180.01          
H13-C10-O9-C4=298.64          
           -------------------------------------------------
          |                Final Singlepoint                |
           -------------------------------------------------

          ...................................................
          :                      SETUP                      :
          :.................................................:
          :  # basis functions                  60          :
          :  # atomic orbitals                  60          :
          :  # shells                           36          :
          :  # electrons                        66          :
          :  max. iterations                   250          :
          :  Hamiltonian                  GFN2-xTB          :
          :  restarted?                      false          :
          :  GBSA solvation                   true          :
          :  PC potential                    false          :
          :  electronic temp.          300.0000000     K    :
          :  accuracy                    1.0000000          :
          :  -> integral cutoff          0.2500000E+02      :
          :  -> integral neglect         0.1000000E-07      :
          :  -> SCF convergence          0.1000000E-05 Eh   :
          :  -> wf. convergence          0.1000000E-03 e    :
          :  Broyden damping             0.4000000          :
          ...................................................

 iter      E             dE          RMSdq      gap      omega  full diag
   1    -38.0381357 -0.380381E+02  0.587E-05    3.84       0.0  T
   2    -38.0381357 -0.130953E-10  0.420E-05    3.84     486.2  T
   3    -38.0381357 -0.486722E-11  0.285E-05    3.84     716.2  T

   *** convergence criteria satisfied after 3 iterations ***

         #    Occupation            Energy/Eh            Energy/eV
      -------------------------------------------------------------
         1        2.0000           -0.7164212             -19.4948
       ...           ...                  ...                  ...
        27        2.0000           -0.4568160             -12.4306
        28        2.0000           -0.4502261             -12.2513
        29        2.0000           -0.4448602             -12.1053
        30        2.0000           -0.4269734             -11.6185
        31        2.0000           -0.4229127             -11.5080
        32        2.0000           -0.3899246             -10.6104
        33        2.0000           -0.3603086              -9.8045 (HOMO)
        34                         -0.2191720              -5.9640 (LUMO)
        35                         -0.2061939              -5.6108
        36                         -0.0860275              -2.3409
        37                          0.0154827               0.4213
        38                          0.0190627               0.5187
       ...                                ...                  ...
        60                          0.6853524              18.6494
      -------------------------------------------------------------
                  HL-Gap            0.1411366 Eh            3.8405 eV
             Fermi-level           -0.2897403 Eh           -7.8842 eV

 SCC (total)                   0 d,  0 h,  0 min,  0.014 sec
 SCC setup                      ...        0 min,  0.000 sec (  3.251%)
 Dispersion                     ...        0 min,  0.000 sec (  0.472%)
 classical contributions        ...        0 min,  0.000 sec (  0.164%)
 integral evaluation            ...        0 min,  0.003 sec ( 18.354%)
 iterations                     ...        0 min,  0.004 sec ( 27.444%)
 molecular gradient             ...        0 min,  0.007 sec ( 48.727%)
 printout                       ...        0 min,  0.000 sec (  1.423%)

         :::::::::::::::::::::::::::::::::::::::::::::::::::::
         ::                     SUMMARY                     ::
         :::::::::::::::::::::::::::::::::::::::::::::::::::::
         :: total energy             -37.578984421081 Eh    ::
         :: total w/o Gsasa/hb       -37.578656209327 Eh    ::
         :: gradient norm              0.000476983803 Eh/a0 ::
         :: HOMO-LUMO gap              3.840521955856 eV    ::
         ::.................................................::
         :: SCC energy               -38.038135712439 Eh    ::
         :: -> isotropic ES            0.055384439938 Eh    ::
         :: -> anisotropic ES          0.004976041365 Eh    ::
         :: -> anisotropic XC          0.006953437346 Eh    ::
         :: -> dispersion             -0.018916399684 Eh    ::
         :: -> Gsolv                  -0.008982538864 Eh    ::
         ::    -> Gelec               -0.008654327110 Eh    ::
         ::    -> Gsasa                0.000580509204 Eh    ::
         ::    -> Ghb                 -0.001989480655 Eh    ::
         ::    -> Gshift               0.001080759698 Eh    ::
         :: repulsion energy           0.459146219963 Eh    ::
         :: add. restraining           0.000000000000 Eh    ::
         :: total charge               0.000000000000 e     ::
         :::::::::::::::::::::::::::::::::::::::::::::::::::::

           ------------------------------------------------- 
          |                Numerical Hessian                |
           ------------------------------------------------- 
step length          :   0.00500
SCC accuracy         :   0.30000
Hessian scale factor :   1.00000
frozen atoms in %    :   0.00000    0
RMS gradient         :   0.00048
estimated CPU  time      0.03 min
estimated wall time      0.03 min

writing file <hessian>.

 projected vibrational frequencies (cm⁻¹)
eigval :       -0.00    -0.00    -0.00    -0.00     0.00     0.00
eigval :       65.55    84.59    88.63   140.88   166.86   176.52
eigval :      198.42   223.80   247.45   264.16   287.60   339.58
eigval :      382.39   390.46   436.71   476.87   538.66   587.18
eigval :      588.12   660.52   699.69   780.59   792.75   838.59
eigval :      868.81   924.25  1016.68  1043.71  1060.07  1113.75
eigval :     1114.53  1114.86  1121.20  1134.20  1148.57  1148.97
eigval :     1169.08  1200.39  1250.44  1274.07  1371.42  1385.16
eigval :     1387.39  1392.29  1425.20  1456.06  1457.78  1458.88
eigval :     1467.24  1470.86  1473.21  1478.32  1581.62  1598.82
eigval :     2936.05  2942.30  2942.49  2949.69  2955.15  2955.61
eigval :     3033.46  3033.63  3034.98  3112.83  3123.90  3128.04
           -------------------------------------------------
          |                Property Printout                |
           -------------------------------------------------

    * Orbital Energies and Occupations

         #    Occupation            Energy/Eh            Energy/eV
      -------------------------------------------------------------
         1        2.0000           -0.7164212             -19.4948
       ...           ...                  ...                  ...
        21        2.0000           -0.4972762             -13.5316
        22        2.0000           -0.4871289             -13.2555
        23        2.0000           -0.4787473             -13.0274
        24        2.0000           -0.4688880             -12.7591
        25        2.0000           -0.4653547             -12.6629
        26        2.0000           -0.4651698             -12.6579
        27        2.0000           -0.4568161             -12.4306
        28        2.0000           -0.4502262             -12.2513
        29        2.0000           -0.4448603             -12.1053
        30        2.0000           -0.4269735             -11.6185
        31        2.0000           -0.4229127             -11.5080
        32        2.0000           -0.3899246             -10.6104
        33        2.0000           -0.3603087              -9.8045 (HOMO)
        34                         -0.2191720              -5.9640 (LUMO)
        35                         -0.2061939              -5.6108
        36                         -0.0860275              -2.3409
        37                          0.0154826               0.4213
        38                          0.0190626               0.5187
        39                          0.0426644               1.1610
        40                          0.1077314               2.9315
        41                          0.1126867               3.0664
        42                          0.1259216               3.4265
        43                          0.1343599               3.6561
        44                          0.1446582               3.9364
       ...                                ...                  ...
        60                          0.6853524              18.6494
      -------------------------------------------------------------
                  HL-Gap            0.1411366 Eh            3.8405 eV
             Fermi-level           -0.2897403 Eh           -7.8842 eV

     #   Z          covCN         q      C6AA      α(0)
     1   6 C        2.863     0.128    25.185     8.226
     2   6 C        2.919    -0.102    30.565     9.066
     3   6 C        2.863     0.120    25.348     8.253
     4   6 C        2.862     0.107    25.629     8.298
     5   6 C        2.919    -0.078    29.939     8.973
     6   6 C        2.916    -0.088    30.199     9.011
     7   1 H        0.926     0.058     2.222     2.331
     8   1 H        0.926     0.054     2.269     2.355
     9   8 O        1.704    -0.302    19.024     5.889
    10   6 C        3.642     0.021    20.562     6.519
    11   1 H        0.924     0.054     2.271     2.357
    12   1 H        0.925     0.081     1.968     2.194
    13   1 H        0.924     0.054     2.271     2.357
    14   8 O        1.704    -0.292    18.852     5.862
    15   6 C        3.643     0.019    20.602     6.525
    16   1 H        0.924     0.056     2.242     2.342
    17   1 H        0.925     0.084     1.936     2.176
    18   1 H        0.924     0.056     2.242     2.342
    19   1 H        0.926     0.062     2.173     2.305
    20   8 O        1.704    -0.305    19.075     5.897
    21   6 C        3.642     0.020    20.589     6.524
    22   1 H        0.925     0.081     1.969     2.194
    23   1 H        0.924     0.054     2.273     2.357
    24   1 H        0.924     0.054     2.273     2.357

 Mol. C6AA /au·bohr⁶  :       5744.055062
 Mol. C8AA /au·bohr⁸  :     131439.045206
 Mol. α(0) /au        :        116.710213


Wiberg/Mayer (AO) data.
largest (>0.10) Wiberg bond orders for each atom

 ---------------------------------------------------------------------------
     #   Z sym  total        # sym  WBO       # sym  WBO       # sym  WBO
 ---------------------------------------------------------------------------
     1   6 C    3.936 --     6 C    1.405     2 C    1.326    20 O    1.049
     2   6 C    3.977 --     3 C    1.430     1 C    1.326    19 H    0.962
     3   6 C    3.937 --     2 C    1.430     4 C    1.254    14 O    1.061
     4   6 C    3.932 --     5 C    1.426     3 C    1.254     9 O    1.045
     5   6 C    3.984 --     4 C    1.426     6 C    1.389     7 H    0.964
     6   6 C    3.982 --     1 C    1.405     5 C    1.389     8 H    0.965
     7   1 H    0.996 --     5 C    0.964
     8   1 H    0.997 --     6 C    0.965
     9   8 O    2.193 --     4 C    1.045    10 C    0.973
    10   6 C    3.931 --    12 H    0.977    13 H    0.976    11 H    0.976
                             9 O    0.973
    11   1 H    0.997 --    10 C    0.976
    12   1 H    0.993 --    10 C    0.977
    13   1 H    0.997 --    10 C    0.976
    14   8 O    2.216 --     3 C    1.061    15 C    0.970
    15   6 C    3.928 --    17 H    0.977    16 H    0.976    18 H    0.976
                            14 O    0.970
    16   1 H    0.997 --    15 C    0.976
    17   1 H    0.992 --    15 C    0.977
    18   1 H    0.997 --    15 C    0.976
    19   1 H    0.995 --     2 C    0.962
    20   8 O    2.193 --     1 C    1.049    21 C    0.972
    21   6 C    3.931 --    22 H    0.978    23 H    0.977    24 H    0.977
                            20 O    0.972
    22   1 H    0.993 --    21 C    0.978
    23   1 H    0.997 --    21 C    0.977
    24   1 H    0.997 --    21 C    0.977
 ---------------------------------------------------------------------------

Topologies differ in total number of bonds
Writing topology from bond orders to xtbtopo.mol

molecular dipole:
                 x           y           z       tot (Debye)
 q only:        0.471      -0.498      -0.000
   full:        0.595      -0.634      -0.000       2.210
molecular quadrupole (traceless):
                xx          xy          yy          xz          yz          zz
 q only:        0.754      -0.697       7.842       0.002       0.000      -8.596
  q+dip:       -1.316      -0.774       8.636       0.002       0.000      -7.320
   full:       -1.664      -0.756       8.402       0.003       0.000      -6.738

           -------------------------------------------------
          |                Geometry Summary                 |
           -------------------------------------------------

      molecular mass/u    :      168.1901269
   center of mass at/Å    :       -0.0098521       0.0098461      -0.0000121
  moments of inertia/u·Å² :        0.3791085E+03   0.7659699E+03   0.1135403E+04
rotational constants/cm⁻¹ :        0.4446651E-01   0.2200822E-01   0.1484726E-01

 * 24 selected distances

     #   Z          #   Z                                           value/Å
     1   6 C        2   6 C                                       1.3984171
     2   6 C        3   6 C                                       1.3796940
     3   6 C        4   6 C                                       1.4132026
     4   6 C        5   6 C                                       1.3801200
     1   6 C        6   6 C                                       1.3818977
     5   6 C        6   6 C                                       1.3915911
     5   6 C        7   1 H                                       1.0772290
     6   6 C        8   1 H                                       1.0767713 (min)
     4   6 C        9   8 O                                       1.3705496
     9   8 O       10   6 C                                       1.4138432
    10   6 C       11   1 H                                       1.0934918
    10   6 C       12   1 H                                       1.0875789
    10   6 C       13   1 H                                       1.0934914
     3   6 C       14   8 O                                       1.3634284
    14   8 O       15   6 C                                       1.4148805 (max)
    15   6 C       16   1 H                                       1.0931019
    15   6 C       17   1 H                                       1.0874830
    15   6 C       18   1 H                                       1.0931020
     2   6 C       19   1 H                                       1.0768473
     1   6 C       20   8 O                                       1.3682565
    20   8 O       21   6 C                                       1.4148500
    21   6 C       22   1 H                                       1.0875972
    21   6 C       23   1 H                                       1.0931079
    21   6 C       24   1 H                                       1.0931083

 * 3 distinct bonds (by element types)

   Z      Z             #   av. dist./Å        max./Å        min./Å
   1 H    6 C          12     1.0877425     1.0934918     1.0767713
   6 C    6 C           6     1.3908204     1.4132026     1.3796940
   6 C    8 O           6     1.3909680     1.4148805     1.3634284

           -------------------------------------------------
          |               Frequency Printout                |
           -------------------------------------------------
 projected vibrational frequencies (cm⁻¹)
eigval :       -0.00    -0.00    -0.00    -0.00     0.00     0.00
eigval :       65.55    84.59    88.63   140.88   166.86   176.52
eigval :      198.42   223.80   247.45   264.16   287.60   339.58
eigval :      382.39   390.46   436.71   476.87   538.66   587.18
eigval :      588.12   660.52   699.69   780.59   792.75   838.59
eigval :      868.81   924.25  1016.68  1043.71  1060.07  1113.75
eigval :     1114.53  1114.86  1121.20  1134.20  1148.57  1148.97
eigval :     1169.08  1200.39  1250.44  1274.07  1371.42  1385.16
eigval :     1387.39  1392.29  1425.20  1456.06  1457.78  1458.88
eigval :     1467.24  1470.86  1473.21  1478.32  1581.62  1598.82
eigval :     2936.05  2942.30  2942.49  2949.69  2955.15  2955.61
eigval :     3033.46  3033.63  3034.98  3112.83  3123.90  3128.04
 reduced masses (amu)
   1: 11.30   2: 12.05   3: 11.66   4: 11.87   5: 11.96   6: 12.18   7:  9.11   8: 10.67
   9:  9.66  10: 13.03  11: 10.58  12:  9.57  13:  6.40  14:  1.57  15:  2.82  16:  7.18
  17:  9.69  18: 11.57  19: 11.11  20: 11.55  21:  9.80  22: 12.69  23: 12.11  24: 10.37
  25: 11.09  26: 11.85  27: 12.27  28: 11.35  29:  4.02  30:  3.23  31:  3.34  32: 10.92
  33: 11.66  34: 12.96  35: 11.02  36:  3.68  37:  3.68  38:  3.69  39: 10.86  40:  6.15
  41:  5.07  42:  6.08  43:  7.05  44:  4.32  45:  4.27  46: 11.90  47:  9.29  48:  2.69
  49:  2.44  50:  4.62  51: 10.30  52:  1.55  53:  1.55  54:  1.55  55:  5.42  56:  1.74
  57:  1.71  58:  6.69  59: 11.64  60: 11.64  61:  1.96  62:  1.96  63:  1.96  64:  1.44
  65:  1.43  66:  1.44  67:  1.70  68:  1.70  69:  1.71  70:  1.78  71:  1.87  72:  1.83
 IR intensities (km·mol⁻¹)
   1:  0.29   2:  0.01   3:  0.01   4:  0.07   5:  0.14   6:  0.09   7: 11.28   8:  0.00
   9:  6.30  10:  2.55  11:  4.98  12:  0.62  13:  4.87  14:  0.05  15:  2.20  16:  5.19
  17:  1.97  18:  1.43  19:  0.59  20:  4.90  21:  2.49  22:  3.55  23:  8.29  24:  0.70
  25:  0.01  26:  1.32  27: 83.07  28: 91.56  29: 63.82  30:  7.22  31:  2.19  32: 81.49
  33: 31.63  34: 14.38  35:117.93  36:  2.50  37:  0.28  38:  5.18  39:317.42  40:120.15
  41:  7.94  42:118.92  43:615.03  44: 94.22  45:108.83  46: 99.82  47:  5.44  48:  0.02
  49:  0.18  50:  1.96  51: 66.30  52:  6.94  53:  6.73  54:  7.46  55:305.48  56: 31.03
  57:  3.54  58:221.02  59:123.57  60:121.67  61: 48.67  62: 56.99  63: 36.66  64: 53.49
  65: 55.82  66: 34.92  67: 27.45  68:  5.11  69: 14.83  70: 20.07  71: 59.93  72: 13.91
 Raman intensities (amu)
   1:  0.00   2:  0.00   3:  0.00   4:  0.00   5:  0.00   6:  0.00   7:  0.00   8:  0.00
   9:  0.00  10:  0.00  11:  0.00  12:  0.00  13:  0.00  14:  0.00  15:  0.00  16:  0.00
  17:  0.00  18:  0.00  19:  0.00  20:  0.00  21:  0.00  22:  0.00  23:  0.00  24:  0.00
  25:  0.00  26:  0.00  27:  0.00  28:  0.00  29:  0.00  30:  0.00  31:  0.00  32:  0.00
  33:  0.00  34:  0.00  35:  0.00  36:  0.00  37:  0.00  38:  0.00  39:  0.00  40:  0.00
  41:  0.00  42:  0.00  43:  0.00  44:  0.00  45:  0.00  46:  0.00  47:  0.00  48:  0.00
  49:  0.00  50:  0.00  51:  0.00  52:  0.00  53:  0.00  54:  0.00  55:  0.00  56:  0.00
  57:  0.00  58:  0.00  59:  0.00  60:  0.00  61:  0.00  62:  0.00  63:  0.00  64:  0.00
  65:  0.00  66:  0.00  67:  0.00  68:  0.00  69:  0.00  70:  0.00  71:  0.00  72:  0.00
 output can be read by thermo (or use thermo option).
 writing <g98.out> molden fake output.
 recommended (thermochemical) frequency scaling factor: 1.0
           -------------------------------------------------
          |             Thermodynamic Functions             |
           -------------------------------------------------

Molecule has the following symmetry elements: (sigma) 
It seems to be the Cs point group
cs  symmetry found (for desy threshold:  0.10E+00) used in thermo

          ...................................................
          :                      SETUP                      :
          :.................................................:
          :  # frequencies                          66      :
          :  # imaginary freq.                       0      :
          :  linear?                             false      :
          :  only rotor calc.                    false      :
          :  symmetry                               cs      :
          :  rotational number                       1      :
          :  scaling factor                  1.0000000      :
          :  rotor cutoff                   50.0000000 cm⁻¹ :
          :  imag. cutoff                  -20.0000000 cm⁻¹ :
          :.................................................:

    mode    ω/cm⁻¹     T·S(HO)/kcal·mol⁻¹    T·S(FR)/kcal·mol⁻¹   T·S(vib)
   ------------------------------------------------------------------------
       1     65.55    -1.27693 ( 74.70%)    -0.97625 ( 25.30%)    -1.20087
       2     84.59    -1.12745 ( 89.12%)    -0.90072 ( 10.88%)    -1.10278
       3     88.63    -1.10018 ( 90.80%)    -0.88688 (  9.20%)    -1.08056
       4    140.88    -0.83239 ( 98.44%)    -0.74962 (  1.56%)    -0.83109
       5    166.86    -0.73658 ( 99.20%)    -0.69949 (  0.80%)    -0.73629
       6    176.52    -0.70509 ( 99.36%)    -0.68283 (  0.64%)    -0.70495
       7    198.42    -0.64033 ( 99.60%)    -0.64818 (  0.40%)    -0.64036
       8    223.80    -0.57487 ( 99.75%)    -0.61253 (  0.25%)    -0.57496
       9    247.45    -0.52136 ( 99.83%)    -0.58278 (  0.17%)    -0.52147
      10    264.16    -0.48721 ( 99.87%)    -0.56342 (  0.13%)    -0.48731
      11    287.60    -0.44366 ( 99.91%)    -0.53824 (  0.09%)    -0.44375
   ------------------------------------------------------------------------

   temp. (K)  partition function   enthalpy   heat capacity  entropy
                                   cal/mol     cal/K/mol   cal/K/mol   J/K/mol
 298.15  VIB  0.450E+04             6103.443     40.474     36.779
         ROT  0.139E+07              888.752      2.981     31.086
         INT  0.624E+10             6992.195     43.455     67.865
         TR   0.211E+28             1481.254      4.968     41.249
         TOT                        8473.4491    48.4232   109.1145   456.5350

       T/K    H(0)-H(T)+PV         H(T)/Eh          T*S/Eh         G(T)/Eh
   ------------------------------------------------------------------------
    298.15    0.135033E-01    0.204214E+00    0.518438E-01    0.152371E+00
   ------------------------------------------------------------------------

         :::::::::::::::::::::::::::::::::::::::::::::::::::::
         ::                  THERMODYNAMIC                  ::
         :::::::::::::::::::::::::::::::::::::::::::::::::::::
         :: total free energy         -37.426613856159 Eh   ::
         ::.................................................::
         :: total energy              -37.578984421569 Eh   ::
         :: zero point energy           0.190711075270 Eh   ::
         :: G(RRHO) w/o ZPVE           -0.038340509861 Eh   ::
         :: G(RRHO) contrib.            0.152370565409 Eh   ::
         :::::::::::::::::::::::::::::::::::::::::::::::::::::

optimized geometry written to: xtbopt.xyz


           -------------------------------------------------
          | TOTAL ENERGY              -37.578984421569 Eh   |
          | TOTAL ENTHALPY            -37.374770045670 Eh   |
          | TOTAL FREE ENERGY         -37.426613856159 Eh   |
          | GRADIENT NORM               0.000477001847 Eh/α |
          | HOMO-LUMO GAP               3.840523680016 eV   |
           -------------------------------------------------

------------------------------------------------------------------------
 * finished run on 2021/11/15 at 09:36:22.824     
------------------------------------------------------------------------
 total:
 * wall-time:     0 d,  0 h,  0 min,  1.962 sec
 *  cpu-time:     0 d,  0 h,  0 min,  1.938 sec
 * ratio c/w:     0.987 speedup
 SCF:
 * wall-time:     0 d,  0 h,  0 min,  0.016 sec
 *  cpu-time:     0 d,  0 h,  0 min,  0.016 sec
 * ratio c/w:     1.006 speedup
 ANC optimizer:
 * wall-time:     0 d,  0 h,  0 min,  0.085 sec
 *  cpu-time:     0 d,  0 h,  0 min,  0.078 sec
 * ratio c/w:     0.914 speedup
 analytical hessian:
 * wall-time:     0 d,  0 h,  0 min,  1.816 sec
 *  cpu-time:     0 d,  0 h,  0 min,  1.812 sec
 * ratio c/w:     0.998 speedup

