 Entering Gaussian System
 *********************************************
 Gaussian 98:
 frequency output generated by the xtb code
 *********************************************
                         Standard orientation:
 --------------------------------------------------------------------
  Center     Atomic     Atomic              Coordinates (Angstroms)
  Number     Number      Type              X           Y           Z
 --------------------------------------------------------------------
    1          6             0        1.625573    0.002532   -0.000029
    2          6             0        0.675207    1.028385   -0.000024
    3          6             0       -0.674404    0.741846    0.000020
    4          6             0       -1.100568   -0.605569    0.000053
    5          6             0       -0.151917   -1.607961    0.000055
    6          6             0        1.208469   -1.314915    0.000014
    7          1             0       -0.451223   -2.642774    0.000091
    8          1             0        1.911791   -2.130252    0.000011
    9          8             0       -2.457913   -0.795365    0.000084
   10          6             0       -2.942688   -2.123501   -0.000217
   11          1             0       -2.619763   -2.662963    0.894448
   12          1             0       -4.026248   -2.030091   -0.000365
   13          1             0       -2.619485   -2.662650   -0.894969
   14          8             0       -1.670169    1.673183    0.000037
   15          6             0       -1.309337    3.041279   -0.000092
   16          1             0       -0.735298    3.297832   -0.894257
   17          1             0       -2.252256    3.583058   -0.000087
   18          1             0       -0.735206    3.297983    0.893971
   19          1             0        1.040673    2.041319   -0.000061
   20          8             0        2.928450    0.420430   -0.000085
   21          6             0        3.947019   -0.561567    0.000074
   22          1             0        4.881021   -0.004335    0.000104
   23          1             0        3.891481   -1.187647    0.894403
   24          1             0        3.891629   -1.187793   -0.894162
 --------------------------------------------------------------------
     1 basis functions        1 primitive gaussians
     1 alpha electrons        1 beta electrons
 
 Harmonic frequencies (cm**-1), IR intensities (km*mol⁻¹),
 Raman scattering activities (A**4/amu), Raman depolarization ratios,
 reduced masses (AMU), force constants (mDyne/A) and normal coordinates:
                      1                      2                      3
                        a                      a                      a 
 Frequencies --    65.5460                84.5885                88.6331
 Red. masses --     9.1126                10.6737                 9.6603
 Frc consts  --     0.0000                 0.0000                 0.0000
 IR Inten    --    11.2815                 0.0000                 6.2983
 Raman Activ --     0.0000                 0.0000                 0.0000
 Depolar     --     0.0000                 0.0000                 0.0000
 Atom AN      X      Y      Z        X      Y      Z        X      Y      Z
   1   6     0.00  -0.00  -0.15    -0.00  -0.00  -0.21     0.00  -0.00  -0.02
   2   6     0.00  -0.00  -0.16    -0.00  -0.00  -0.18     0.00  -0.00   0.19
   3   6     0.00  -0.00  -0.17    -0.00  -0.00   0.03     0.00  -0.00   0.17
   4   6    -0.00  -0.00  -0.19     0.00  -0.00   0.15     0.00  -0.00  -0.01
   5   6    -0.00  -0.00  -0.25    -0.00  -0.00   0.10     0.00  -0.00  -0.34
   6   6    -0.00  -0.00  -0.23    -0.00  -0.00  -0.06     0.00  -0.00  -0.36
   7   1    -0.00  -0.00  -0.08    -0.00  -0.00   0.06     0.00  -0.00  -0.17
   8   1    -0.00  -0.00  -0.07    -0.00  -0.00  -0.02     0.00  -0.00  -0.18
   9   8    -0.00   0.00  -0.13     0.00  -0.00   0.36     0.00   0.00   0.16
  10   6    -0.00  -0.00   0.46    -0.00   0.00  -0.33    -0.00   0.00   0.10
  11   1     0.07   0.09   0.16    -0.04  -0.11  -0.15     0.07  -0.03  -0.02
  12   1    -0.00  -0.00   0.21     0.00   0.00  -0.13    -0.00   0.00   0.11
  13   1    -0.07  -0.09   0.16     0.04   0.11  -0.15    -0.07   0.03  -0.02
  14   8     0.00  -0.00  -0.12     0.00  -0.00   0.16     0.00  -0.00   0.35
  15   6     0.00   0.00   0.28     0.00  -0.00   0.01    -0.00  -0.00  -0.45
  16   1    -0.00   0.07   0.10    -0.05  -0.01  -0.03    -0.00  -0.15  -0.17
  17   1     0.00   0.00   0.13     0.00   0.00   0.05    -0.00  -0.00  -0.21
  18   1     0.00  -0.07   0.10     0.05   0.01  -0.03     0.00   0.15  -0.17
  19   1     0.00  -0.00  -0.03     0.00  -0.00  -0.09     0.00   0.00   0.12
  20   8    -0.00  -0.00  -0.04    -0.00  -0.00  -0.45     0.00   0.00   0.17
  21   6     0.00   0.00   0.41     0.00   0.00   0.41     0.00   0.00   0.11
  22   1    -0.00   0.00   0.20    -0.00   0.00   0.16    -0.00   0.00   0.13
  23   1    -0.09   0.03   0.13    -0.10   0.11   0.19    -0.05  -0.06  -0.01
  24   1     0.09  -0.03   0.13     0.10  -0.11   0.19     0.05   0.06  -0.01
                      4                      5                      6
                        a                      a                      a 
 Frequencies --   140.8833               166.8641               176.5206
 Red. masses --    13.0306                10.5841                 9.5705
 Frc consts  --     0.0000                 0.0000                 0.0000
 IR Inten    --     2.5544                 4.9786                 0.6186
 Raman Activ --     0.0000                 0.0000                 0.0000
 Depolar     --     0.0000                 0.0000                 0.0000
 Atom AN      X      Y      Z        X      Y      Z        X      Y      Z
   1   6    -0.00  -0.00  -0.01     0.10   0.03  -0.00     0.01  -0.13   0.00
   2   6    -0.00   0.00   0.08     0.11   0.06  -0.00    -0.00  -0.15   0.00
   3   6    -0.00   0.00   0.15     0.13  -0.00  -0.00     0.02  -0.14   0.00
   4   6    -0.00   0.00  -0.07     0.14  -0.00  -0.00    -0.00  -0.13   0.00
   5   6    -0.00   0.00   0.11     0.09  -0.02   0.00    -0.01  -0.14   0.00
   6   6    -0.00   0.00   0.18     0.09   0.03   0.00     0.02  -0.14   0.00
   7   1    -0.00   0.00   0.04     0.02  -0.01   0.00    -0.01  -0.04   0.00
   8   1    -0.00  -0.00   0.08     0.03   0.01   0.00     0.01  -0.03   0.00
   9   8    -0.00   0.00  -0.61     0.13   0.25  -0.00    -0.04   0.11  -0.00
  10   6     0.00  -0.00   0.08    -0.16   0.33   0.00    -0.42   0.24  -0.00
  11   1    -0.05   0.14   0.13    -0.08   0.08  -0.00    -0.17   0.04  -0.00
  12   1     0.00  -0.00  -0.06    -0.04   0.16   0.00    -0.11   0.16  -0.00
  13   1     0.05  -0.14   0.13    -0.08   0.08   0.00    -0.17   0.04   0.00
  14   8     0.00   0.00   0.49    -0.10  -0.28   0.00     0.07  -0.13  -0.00
  15   6     0.00   0.00  -0.10    -0.57  -0.13   0.00     0.19  -0.15  -0.00
  16   1    -0.06  -0.09  -0.09    -0.19   0.02   0.00     0.06  -0.06  -0.00
  17   1     0.00   0.00  -0.01    -0.22  -0.13   0.00     0.07  -0.02  -0.00
  18   1     0.06   0.09  -0.09    -0.19   0.02  -0.00     0.06  -0.06   0.00
  19   1     0.00  -0.00   0.03     0.02   0.02  -0.00     0.01  -0.05   0.00
  20   8    -0.00  -0.00  -0.35     0.16  -0.09  -0.00    -0.08   0.14  -0.00
  21   6    -0.00   0.00   0.06     0.05  -0.18   0.00     0.25   0.47  -0.00
  22   1    -0.00   0.00  -0.06     0.03  -0.08  -0.00     0.02   0.23   0.00
  23   1     0.01   0.11   0.09    -0.00  -0.05   0.00     0.13   0.13  -0.00
  24   1    -0.01  -0.11   0.09    -0.00  -0.05  -0.00     0.13   0.13   0.00
                      7                      8                      9
                        a                      a                      a 
 Frequencies --   198.4234               223.8014               247.4508
 Red. masses --     6.4026                 1.5668                 2.8238
 Frc consts  --     0.0000                 0.0000                 0.0000
 IR Inten    --     4.8653                 0.0473                 2.1986
 Raman Activ --     0.0000                 0.0000                 0.0000
 Depolar     --     0.0000                 0.0000                 0.0000
 Atom AN      X      Y      Z        X      Y      Z        X      Y      Z
   1   6    -0.00  -0.00  -0.05     0.00   0.00   0.10    -0.00  -0.00   0.03
   2   6    -0.00  -0.00  -0.41    -0.00  -0.00   0.02     0.00  -0.00   0.03
   3   6    -0.00  -0.00  -0.15    -0.00  -0.00  -0.02     0.00   0.00   0.03
   4   6    -0.00  -0.00  -0.07    -0.00  -0.00  -0.10    -0.00   0.00   0.00
   5   6    -0.00  -0.00  -0.02     0.00  -0.00  -0.14    -0.00   0.00   0.16
   6   6    -0.00  -0.00   0.10     0.00   0.00   0.10    -0.00  -0.00   0.20
   7   1    -0.00  -0.00   0.01     0.00  -0.00  -0.08    -0.00   0.00   0.03
   8   1     0.00  -0.00   0.09     0.00   0.00   0.07    -0.00  -0.00   0.05
   9   8    -0.00  -0.00   0.03    -0.00  -0.00   0.03    -0.00   0.00  -0.18
  10   6    -0.00   0.00  -0.02    -0.00   0.00  -0.01     0.00  -0.00  -0.03
  11   1     0.00  -0.01  -0.01     0.28  -0.12  -0.18     0.34  -0.11  -0.20
  12   1    -0.00   0.00   0.00    -0.00  -0.00   0.36    -0.00  -0.00   0.42
  13   1    -0.00   0.01  -0.01    -0.28   0.12  -0.18    -0.34   0.11  -0.20
  14   8     0.00   0.00   0.28     0.00  -0.00   0.02    -0.00   0.00   0.00
  15   6     0.00  -0.00  -0.03     0.00  -0.00  -0.01    -0.00   0.00   0.00
  16   1    -0.36   0.03  -0.23    -0.03   0.00  -0.02     0.00  -0.00   0.00
  17   1     0.00   0.00   0.39     0.00   0.00   0.03    -0.00  -0.00  -0.00
  18   1     0.36  -0.03  -0.23     0.03  -0.00  -0.02    -0.00   0.00   0.00
  19   1    -0.00  -0.00  -0.19    -0.00  -0.00   0.00     0.00  -0.00  -0.01
  20   8    -0.00   0.00   0.35    -0.00   0.00   0.01     0.00  -0.00  -0.19
  21   6     0.00   0.00  -0.03    -0.00   0.00   0.03     0.00  -0.00  -0.04
  22   1     0.00   0.00   0.03     0.00  -0.00  -0.43    -0.00   0.00   0.35
  23   1     0.01  -0.08  -0.07     0.25   0.27   0.22    -0.21  -0.20  -0.17
  24   1    -0.01   0.08  -0.07    -0.25  -0.27   0.22     0.21   0.20  -0.17
                     10                     11                     12
                        a                      a                      a 
 Frequencies --   264.1607               287.5989               339.5787
 Red. masses --     7.1820                 9.6915                11.5692
 Frc consts  --     0.0000                 0.0000                 0.0000
 IR Inten    --     5.1855                 1.9694                 1.4310
 Raman Activ --     0.0000                 0.0000                 0.0000
 Depolar     --     0.0000                 0.0000                 0.0000
 Atom AN      X      Y      Z        X      Y      Z        X      Y      Z
   1   6    -0.00  -0.00   0.15     0.01   0.28  -0.00    -0.18  -0.13  -0.00
   2   6     0.00  -0.00   0.48    -0.08   0.15   0.00    -0.01  -0.01  -0.00
   3   6     0.00   0.00   0.14    -0.02  -0.10   0.00     0.04   0.00   0.00
   4   6    -0.00   0.00   0.09     0.08  -0.13   0.00     0.13   0.03   0.00
   5   6    -0.00   0.00  -0.02     0.20  -0.01   0.00    -0.06  -0.13   0.00
   6   6    -0.00  -0.00  -0.12     0.14   0.23   0.00    -0.07  -0.16  -0.00
   7   1    -0.00   0.00  -0.05     0.09  -0.02   0.00    -0.03  -0.03   0.00
   8   1    -0.00  -0.00  -0.13     0.06   0.09  -0.00    -0.01  -0.04  -0.00
   9   8    -0.00   0.00  -0.02     0.09  -0.06  -0.00     0.17   0.36  -0.00
  10   6     0.00  -0.00   0.01    -0.24   0.07  -0.00     0.46   0.26   0.00
  11   1    -0.02   0.01   0.02    -0.11  -0.01  -0.00     0.18   0.10   0.00
  12   1     0.00  -0.00  -0.02    -0.06   0.10   0.00     0.13  -0.03   0.00
  13   1     0.02  -0.01   0.02    -0.11  -0.01   0.00     0.18   0.10  -0.00
  14   8    -0.00   0.00  -0.38    -0.05  -0.16  -0.00    -0.07  -0.18  -0.00
  15   6    -0.00   0.00  -0.05     0.30  -0.24  -0.00     0.09  -0.22   0.00
  16   1    -0.32   0.12  -0.18     0.11  -0.12  -0.00     0.04  -0.09   0.00
  17   1    -0.00   0.00   0.40     0.13   0.01   0.00     0.05  -0.02   0.00
  18   1     0.32  -0.12  -0.18     0.11  -0.12   0.00     0.04  -0.09  -0.00
  19   1     0.00  -0.00   0.15    -0.06   0.05   0.00     0.05  -0.02  -0.00
  20   8    -0.00  -0.00  -0.23     0.02   0.25  -0.00    -0.33   0.04   0.00
  21   6     0.00   0.00   0.01    -0.38  -0.19   0.00    -0.26   0.11  -0.00
  22   1     0.00   0.00   0.02    -0.04  -0.18   0.00    -0.08   0.04  -0.00
  23   1    -0.03   0.03   0.02    -0.19  -0.05   0.00    -0.07   0.03  -0.00
  24   1     0.03  -0.03   0.02    -0.19  -0.05  -0.00    -0.07   0.03   0.00
                     13                     14                     15
                        a                      a                      a 
 Frequencies --   382.3886               390.4605               436.7095
 Red. masses --    11.1146                11.5474                 9.7978
 Frc consts  --     0.0000                 0.0000                 0.0000
 IR Inten    --     0.5858                 4.8977                 2.4883
 Raman Activ --     0.0000                 0.0000                 0.0000
 Depolar     --     0.0000                 0.0000                 0.0000
 Atom AN      X      Y      Z        X      Y      Z        X      Y      Z
   1   6     0.00   0.00  -0.31    -0.08  -0.18  -0.00     0.00  -0.00   0.15
   2   6    -0.00   0.00  -0.09     0.02  -0.12   0.00    -0.00  -0.00  -0.31
   3   6    -0.00  -0.00   0.15     0.03   0.05   0.00     0.00   0.00   0.48
   4   6    -0.00   0.00   0.41     0.23  -0.07   0.00     0.00  -0.00   0.48
   5   6    -0.00   0.00   0.43     0.16  -0.15   0.00     0.00  -0.00  -0.37
   6   6    -0.00   0.00  -0.46     0.17  -0.25  -0.00     0.00  -0.00   0.16
   7   1     0.00   0.00   0.18    -0.00  -0.03   0.00     0.00  -0.00  -0.34
   8   1    -0.00   0.00  -0.22     0.06  -0.06  -0.00     0.00  -0.00  -0.00
   9   8    -0.00   0.00  -0.31     0.30  -0.18  -0.00     0.00  -0.00  -0.14
  10   6    -0.00  -0.00  -0.03    -0.13  -0.01  -0.00    -0.00  -0.00  -0.00
  11   1     0.09   0.01  -0.04    -0.10  -0.04   0.00    -0.01   0.03   0.02
  12   1    -0.00  -0.00   0.11    -0.03   0.12   0.00    -0.00   0.00  -0.02
  13   1    -0.09  -0.01  -0.04    -0.10  -0.04  -0.00     0.01  -0.03   0.02
  14   8    -0.00  -0.00  -0.06     0.19   0.26  -0.00     0.00   0.00  -0.16
  15   6     0.00  -0.00   0.01    -0.14   0.36  -0.00    -0.00   0.00  -0.00
  16   1    -0.00   0.01   0.00    -0.07   0.16   0.00     0.02   0.03   0.02
  17   1     0.00  -0.00   0.01    -0.09   0.01   0.00    -0.00   0.00  -0.01
  18   1     0.00  -0.01   0.00    -0.07   0.16  -0.00    -0.02  -0.03   0.02
  19   1    -0.00   0.00  -0.02     0.04  -0.05   0.00    -0.00  -0.00  -0.31
  20   8     0.00  -0.00   0.26    -0.26   0.12   0.00    -0.00   0.00  -0.04
  21   6     0.00  -0.00   0.03    -0.33   0.07   0.00    -0.00  -0.00  -0.00
  22   1     0.00  -0.00  -0.10    -0.07  -0.02  -0.00    -0.00  -0.00   0.01
  23   1     0.08   0.03   0.04    -0.12   0.02  -0.00    -0.01  -0.00  -0.00
  24   1    -0.07  -0.03   0.04    -0.12   0.02   0.00     0.01   0.00  -0.00
                     16                     17                     18
                        a                      a                      a 
 Frequencies --   476.8727               538.6581               587.1814
 Red. masses --    12.6881                12.1143                10.3675
 Frc consts  --     0.0000                 0.0000                 0.0000
 IR Inten    --     3.5531                 8.2936                 0.7011
 Raman Activ --     0.0000                 0.0000                 0.0000
 Depolar     --     0.0000                 0.0000                 0.0000
 Atom AN      X      Y      Z        X      Y      Z        X      Y      Z
   1   6     0.16  -0.01   0.00    -0.25   0.16   0.00     0.09  -0.20  -0.00
   2   6     0.19  -0.10   0.00     0.13   0.46  -0.00     0.28   0.01   0.00
   3   6     0.25  -0.19  -0.00     0.26   0.03  -0.00     0.18   0.31   0.00
   4   6    -0.21  -0.04  -0.00     0.11  -0.00   0.00     0.03   0.39  -0.00
   5   6    -0.15   0.02  -0.00    -0.15  -0.16   0.00    -0.11   0.38  -0.00
   6   6    -0.10   0.04   0.00    -0.29   0.19  -0.00    -0.01  -0.17   0.00
   7   1     0.00  -0.01  -0.00    -0.04  -0.04  -0.00    -0.15   0.14   0.00
   8   1    -0.07  -0.03   0.00    -0.01   0.12  -0.00    -0.09  -0.12   0.00
   9   8    -0.35   0.10   0.00     0.15  -0.16  -0.00     0.09  -0.19   0.00
  10   6     0.02  -0.06  -0.00    -0.07  -0.11  -0.00    -0.13  -0.19   0.00
  11   1     0.06   0.01  -0.00    -0.06  -0.05   0.00    -0.09  -0.08   0.00
  12   1    -0.00  -0.13  -0.00    -0.01   0.05   0.00    -0.03   0.05  -0.00
  13   1     0.06   0.01   0.00    -0.06  -0.05  -0.00    -0.09  -0.08  -0.00
  14   8     0.53  -0.15  -0.00     0.31  -0.11  -0.00    -0.14  -0.13  -0.00
  15   6    -0.08  -0.01   0.00     0.02  -0.05   0.00    -0.02  -0.26  -0.00
  16   1    -0.07   0.09  -0.00    -0.02   0.03  -0.00     0.02  -0.12   0.00
  17   1    -0.11  -0.15   0.00    -0.04  -0.08   0.00     0.04   0.01   0.00
  18   1    -0.07   0.09   0.00    -0.02   0.03   0.00     0.02  -0.12  -0.00
  19   1     0.00  -0.01   0.00     0.03   0.13  -0.00     0.21  -0.04   0.00
  20   8     0.06   0.33  -0.00    -0.25  -0.28   0.00    -0.04   0.09   0.00
  21   6    -0.22   0.08  -0.00     0.03   0.04  -0.00    -0.12   0.08   0.00
  22   1    -0.00  -0.09   0.00    -0.06   0.13  -0.00    -0.01  -0.02   0.00
  23   1    -0.14   0.03  -0.00     0.09   0.01   0.00    -0.06   0.02  -0.00
  24   1    -0.14   0.03   0.00     0.09   0.01  -0.00    -0.06   0.02   0.00
                     19                     20                     21
                        a                      a                      a 
 Frequencies --   588.1196               660.5153               699.6888
 Red. masses --    11.0914                11.8484                12.2725
 Frc consts  --     0.0000                 0.0000                 0.0000
 IR Inten    --     0.0053                 1.3166                83.0730
 Raman Activ --     0.0000                 0.0000                 0.0000
 Depolar     --     0.0000                 0.0000                 0.0000
 Atom AN      X      Y      Z        X      Y      Z        X      Y      Z
   1   6    -0.00   0.00  -0.71     0.00   0.00   0.33    -0.09   0.01  -0.00
   2   6    -0.00  -0.00   0.12    -0.00  -0.00  -0.27    -0.04   0.00  -0.00
   3   6    -0.00  -0.00   0.46    -0.00  -0.00   0.56     0.00  -0.02   0.00
   4   6    -0.00  -0.00  -0.21    -0.00  -0.00  -0.58    -0.06   0.06  -0.00
   5   6     0.00  -0.00  -0.11     0.00  -0.00   0.28     0.37   0.38  -0.00
   6   6     0.00   0.00   0.26    -0.00   0.00  -0.25     0.42   0.00  -0.00
   7   1     0.00  -0.00   0.04     0.00  -0.00   0.06     0.12   0.10  -0.00
   8   1     0.00   0.00   0.27    -0.00   0.00  -0.06     0.14   0.02   0.00
   9   8    -0.00   0.00   0.06    -0.00   0.00   0.08    -0.31   0.09   0.00
  10   6     0.00   0.00   0.01     0.00   0.00   0.01    -0.07  -0.03  -0.00
  11   1    -0.01  -0.01   0.00    -0.01  -0.01   0.00     0.04   0.02  -0.00
  12   1     0.00  -0.00  -0.00     0.00  -0.00  -0.01    -0.03  -0.11  -0.00
  13   1     0.01   0.01   0.00     0.01   0.01   0.00     0.04   0.02   0.00
  14   8     0.00   0.00  -0.15     0.00   0.00  -0.08     0.18  -0.07  -0.00
  15   6     0.00   0.00  -0.02     0.00   0.00  -0.01     0.00  -0.07   0.00
  16   1    -0.02   0.02  -0.01     0.00   0.01   0.00    -0.02   0.01  -0.00
  17   1    -0.00  -0.00   0.03    -0.00  -0.00   0.00    -0.03  -0.07   0.00
  18   1     0.01  -0.02  -0.01    -0.00  -0.01   0.00    -0.02   0.01   0.00
  19   1    -0.00   0.00   0.15    -0.00  -0.00  -0.11    -0.01  -0.00   0.00
  20   8     0.00  -0.00   0.14     0.00   0.00  -0.04    -0.35  -0.34   0.00
  21   6     0.00  -0.00   0.01     0.00  -0.00  -0.00    -0.08  -0.00  -0.00
  22   1     0.00   0.00  -0.00     0.00  -0.00   0.00    -0.11   0.15  -0.00
  23   1     0.02  -0.01  -0.00    -0.00   0.00   0.00     0.08  -0.00   0.00
  24   1    -0.02   0.01  -0.00     0.00  -0.00   0.00     0.08  -0.00  -0.00
                     22                     23                     24
                        a                      a                      a 
 Frequencies --   780.5861               792.7458               838.5881
 Red. masses --    11.3541                 4.0230                 3.2255
 Frc consts  --     0.0000                 0.0000                 0.0000
 IR Inten    --    91.5595                63.8167                 7.2250
 Raman Activ --     0.0000                 0.0000                 0.0000
 Depolar     --     0.0000                 0.0000                 0.0000
 Atom AN      X      Y      Z        X      Y      Z        X      Y      Z
   1   6    -0.01   0.04  -0.00     0.00   0.00   0.21     0.00  -0.00   0.05
   2   6    -0.29  -0.35   0.00    -0.00  -0.00  -0.15    -0.00  -0.00  -0.41
   3   6    -0.17  -0.16  -0.00    -0.00  -0.00   0.06     0.00   0.00   0.02
   4   6    -0.08   0.11   0.00     0.00   0.00   0.18    -0.00  -0.00   0.06
   5   6    -0.09   0.39   0.00    -0.00   0.00  -0.25    -0.00   0.00   0.11
   6   6    -0.16   0.19   0.00    -0.00   0.00  -0.32    -0.00   0.00   0.13
   7   1    -0.06   0.12  -0.00    -0.00   0.00   0.45     0.00  -0.00  -0.29
   8   1    -0.11   0.00  -0.00     0.00   0.00   0.66    -0.00  -0.00  -0.19
   9   8     0.41  -0.15  -0.00     0.00  -0.00  -0.04     0.00  -0.00   0.00
  10   6     0.12   0.14   0.00    -0.00   0.00  -0.00     0.00  -0.00  -0.00
  11   1    -0.06  -0.02   0.00     0.01  -0.01  -0.01    -0.00   0.00   0.00
  12   1     0.05   0.21   0.00    -0.00   0.00   0.02     0.00   0.00  -0.01
  13   1    -0.06  -0.02  -0.00    -0.01   0.01  -0.01     0.00  -0.00   0.00
  14   8     0.29  -0.07  -0.00     0.00  -0.00  -0.03    -0.00   0.00  -0.03
  15   6     0.02  -0.10   0.00     0.00  -0.00  -0.00    -0.00   0.00   0.00
  16   1    -0.03   0.05  -0.00    -0.01  -0.00  -0.01    -0.01  -0.01  -0.01
  17   1    -0.06  -0.15   0.00    -0.00  -0.00   0.01     0.00   0.00   0.03
  18   1    -0.03   0.05   0.00     0.01   0.00  -0.01     0.01   0.01  -0.01
  19   1    -0.20  -0.06  -0.00    -0.00   0.00   0.30     0.00   0.00   0.82
  20   8    -0.03  -0.05   0.00    -0.00  -0.00  -0.06     0.00  -0.00  -0.02
  21   6     0.03  -0.02   0.00    -0.00  -0.00  -0.00    -0.00   0.00  -0.01
  22   1    -0.01   0.03  -0.00    -0.00   0.00   0.03     0.00  -0.00  -0.00
  23   1     0.03  -0.01  -0.00    -0.01  -0.01  -0.01    -0.01   0.01   0.00
  24   1     0.03  -0.01   0.00     0.01   0.01  -0.01     0.01  -0.01   0.00
                     25                     26                     27
                        a                      a                      a 
 Frequencies --   868.8056               924.2459              1016.6804
 Red. masses --     3.3380                10.9199                11.6568
 Frc consts  --     0.0000                 0.0000                 0.0000
 IR Inten    --     2.1868                81.4924                31.6324
 Raman Activ --     0.0000                 0.0000                 0.0000
 Depolar     --     0.0000                 0.0000                 0.0000
 Atom AN      X      Y      Z        X      Y      Z        X      Y      Z
   1   6     0.00  -0.00  -0.04     0.34  -0.00  -0.00    -0.09  -0.04   0.00
   2   6     0.00  -0.00   0.10     0.29  -0.26  -0.00     0.08   0.31  -0.00
   3   6     0.00  -0.00  -0.10     0.17  -0.15   0.00     0.11  -0.24   0.00
   4   6    -0.00  -0.00   0.01    -0.07  -0.13   0.00    -0.26  -0.14   0.00
   5   6     0.00   0.00   0.34     0.01   0.03  -0.00    -0.01   0.22  -0.00
   6   6    -0.00   0.00  -0.27    -0.15   0.39   0.00     0.10  -0.22   0.00
   7   1     0.00  -0.00  -0.69     0.18  -0.04   0.00    -0.04   0.07   0.00
   8   1     0.00   0.00   0.55    -0.07   0.09  -0.00    -0.06  -0.13   0.00
   9   8     0.00   0.00   0.02     0.05  -0.04  -0.00    -0.07  -0.34  -0.00
  10   6     0.00  -0.00  -0.00     0.02   0.05   0.00     0.20   0.33   0.00
  11   1    -0.00   0.01   0.01     0.00   0.01  -0.00    -0.03   0.02  -0.00
  12   1     0.00  -0.00  -0.02     0.01   0.03   0.00     0.06   0.19   0.00
  13   1     0.00  -0.01   0.01     0.00   0.01   0.00    -0.03   0.02   0.00
  14   8    -0.00   0.00   0.01    -0.27  -0.02   0.00    -0.11  -0.30   0.00
  15   6    -0.00   0.00   0.00    -0.04   0.21  -0.00     0.04   0.35  -0.00
  16   1     0.00   0.00   0.00     0.03  -0.04   0.00     0.03   0.01  -0.00
  17   1     0.00   0.00  -0.00     0.07   0.19  -0.00     0.05   0.15  -0.00
  18   1    -0.00  -0.00   0.00     0.03  -0.04  -0.00     0.03   0.01   0.00
  19   1     0.00  -0.00  -0.07     0.09  -0.08  -0.00    -0.02   0.10  -0.00
  20   8    -0.00  -0.00  -0.01    -0.08  -0.29   0.00    -0.04   0.06  -0.00
  21   6    -0.00   0.00   0.00    -0.29   0.16  -0.00     0.08  -0.02   0.00
  22   1    -0.00   0.00   0.02    -0.15   0.17  -0.00     0.05  -0.06   0.00
  23   1     0.00  -0.01  -0.01     0.02   0.03  -0.00    -0.03  -0.00  -0.00
  24   1    -0.00   0.01  -0.01     0.02   0.03   0.00    -0.03  -0.00   0.00
                     28                     29                     30
                        a                      a                      a 
 Frequencies --  1043.7136              1060.0677              1113.7509
 Red. masses --    12.9610                11.0152                 3.6819
 Frc consts  --     0.0000                 0.0000                 0.0000
 IR Inten    --    14.3779               117.9290                 2.5013
 Raman Activ --     0.0000                 0.0000                 0.0000
 Depolar     --     0.0000                 0.0000                 0.0000
 Atom AN      X      Y      Z        X      Y      Z        X      Y      Z
   1   6     0.11   0.01  -0.00    -0.07  -0.05   0.00     0.00  -0.00  -0.00
   2   6     0.04   0.12  -0.00     0.12  -0.17  -0.00     0.00   0.00   0.00
   3   6    -0.10   0.12  -0.00     0.06   0.09  -0.00     0.00  -0.00  -0.00
   4   6    -0.15  -0.05  -0.00    -0.04  -0.05   0.00    -0.00  -0.00   0.00
   5   6    -0.02  -0.12   0.00     0.06  -0.03  -0.00     0.00   0.00   0.00
   6   6     0.07  -0.07  -0.00    -0.07   0.22  -0.00    -0.00  -0.00  -0.00
   7   1     0.03  -0.05  -0.00     0.21  -0.06   0.00     0.00  -0.00  -0.00
   8   1     0.03  -0.01   0.00     0.05   0.12  -0.00    -0.00  -0.00  -0.00
   9   8    -0.16  -0.37  -0.00    -0.11  -0.22  -0.00     0.00   0.00  -0.01
  10   6     0.18   0.35   0.00     0.07   0.20   0.00    -0.00  -0.00   0.02
  11   1    -0.01   0.03  -0.00     0.01   0.02  -0.01    -0.01  -0.02  -0.01
  12   1     0.04   0.14   0.00     0.01   0.05   0.00    -0.00  -0.00  -0.01
  13   1    -0.01   0.03   0.00     0.01   0.02   0.01     0.01   0.02  -0.01
  14   8     0.08   0.41  -0.00     0.03   0.18  -0.00    -0.00   0.00  -0.22
  15   6    -0.05  -0.40   0.00    -0.10  -0.14   0.00     0.00   0.00   0.42
  16   1    -0.03  -0.01   0.00     0.01  -0.06   0.01    -0.17  -0.55  -0.17
  17   1    -0.05  -0.15   0.00     0.01   0.03  -0.00    -0.00  -0.00  -0.22
  18   1    -0.03  -0.01  -0.00     0.01  -0.06  -0.01     0.17   0.55  -0.17
  19   1     0.03   0.03  -0.00     0.32  -0.15  -0.00    -0.00   0.00  -0.02
  20   8     0.23  -0.18   0.00    -0.44   0.29  -0.00    -0.00  -0.00   0.00
  21   6    -0.23   0.17  -0.00     0.36  -0.28   0.00     0.00   0.00  -0.01
  22   1    -0.08   0.08  -0.00     0.11  -0.12   0.00     0.00  -0.00   0.00
  23   1     0.00   0.02  -0.00    -0.01  -0.03   0.01    -0.01   0.01   0.00
  24   1     0.00   0.02   0.00    -0.01  -0.03  -0.01     0.00  -0.01   0.00
                     31                     32                     33
                        a                      a                      a 
 Frequencies --  1114.5262              1114.8572              1121.2022
 Red. masses --     3.6807                 3.6921                10.8568
 Frc consts  --     0.0000                 0.0000                 0.0000
 IR Inten    --     0.2760                 5.1791               317.4157
 Raman Activ --     0.0000                 0.0000                 0.0000
 Depolar     --     0.0000                 0.0000                 0.0000
 Atom AN      X      Y      Z        X      Y      Z        X      Y      Z
   1   6    -0.00   0.00   0.00     0.00   0.00  -0.00    -0.03   0.08   0.00
   2   6    -0.00  -0.00   0.00    -0.00  -0.00  -0.00    -0.08  -0.22   0.00
   3   6    -0.00   0.00  -0.00    -0.00   0.00   0.00    -0.12   0.28  -0.00
   4   6     0.00   0.00  -0.00     0.00   0.00  -0.00     0.23   0.24  -0.00
   5   6    -0.00  -0.00   0.00     0.00  -0.00   0.00    -0.04  -0.20   0.00
   6   6     0.00   0.00  -0.00    -0.00   0.00   0.00     0.01   0.07  -0.00
   7   1    -0.00   0.00  -0.02    -0.00   0.00  -0.01    -0.19  -0.00   0.00
   8   1     0.00   0.00   0.01     0.00   0.00  -0.01     0.22   0.21  -0.00
   9   8    -0.00  -0.00  -0.19    -0.00  -0.00  -0.11    -0.29  -0.22   0.00
  10   6     0.00   0.00   0.37    -0.00  -0.00   0.21     0.11   0.17  -0.00
  11   1    -0.16  -0.48  -0.15    -0.09  -0.27  -0.08    -0.04  -0.01   0.00
  12   1     0.00   0.00  -0.19     0.00   0.00  -0.11     0.02   0.06   0.00
  13   1     0.16   0.48  -0.15     0.09   0.27  -0.08    -0.04  -0.01  -0.00
  14   8     0.00  -0.00   0.01     0.00  -0.00   0.00     0.07  -0.41  -0.00
  15   6     0.00   0.00  -0.02     0.00   0.00  -0.00     0.09   0.24   0.00
  16   1     0.01   0.02   0.01     0.00   0.01   0.00     0.01   0.02  -0.01
  17   1    -0.00   0.00   0.01    -0.00  -0.00   0.00    -0.02  -0.02  -0.00
  18   1    -0.01  -0.02   0.01    -0.00  -0.01   0.00     0.01   0.02   0.01
  19   1     0.00  -0.00  -0.00    -0.00   0.00   0.00     0.12  -0.11   0.00
  20   8     0.00   0.00   0.11     0.00  -0.00  -0.19     0.14   0.05  -0.00
  21   6    -0.00  -0.00  -0.21    -0.00   0.00   0.37    -0.12  -0.07   0.00
  22   1    -0.00   0.00   0.11     0.00  -0.00  -0.19    -0.12   0.14  -0.00
  23   1    -0.20   0.20   0.08     0.35  -0.36  -0.15     0.11  -0.01   0.02
  24   1     0.20  -0.20   0.08    -0.35   0.36  -0.15     0.11  -0.01  -0.02
                     34                     35                     36
                        a                      a                      a 
 Frequencies --  1134.2016              1148.5675              1148.9748
 Red. masses --     6.1472                 5.0708                 6.0778
 Frc consts  --     0.0000                 0.0000                 0.0000
 IR Inten    --   120.1520                 7.9410               118.9240
 Raman Activ --     0.0000                 0.0000                 0.0000
 Depolar     --     0.0000                 0.0000                 0.0000
 Atom AN      X      Y      Z        X      Y      Z        X      Y      Z
   1   6     0.08   0.09   0.00    -0.01  -0.03  -0.00    -0.17  -0.04  -0.00
   2   6     0.06  -0.02  -0.00     0.07   0.00  -0.00    -0.12  -0.05   0.00
   3   6     0.11  -0.15   0.00    -0.04  -0.02   0.00    -0.03   0.07   0.00
   4   6    -0.12   0.04  -0.00    -0.05   0.02  -0.00    -0.04   0.01  -0.00
   5   6    -0.06  -0.08   0.00     0.05  -0.03  -0.00     0.01  -0.02  -0.00
   6   6     0.11  -0.10   0.00    -0.00   0.06  -0.00     0.03   0.06  -0.00
   7   1    -0.16   0.02   0.00     0.12  -0.04   0.00     0.04  -0.01   0.00
   8   1     0.12   0.05  -0.00     0.05   0.06  -0.00     0.16   0.15  -0.00
   9   8    -0.08   0.21   0.00    -0.13   0.18   0.00    -0.06   0.08   0.00
  10   6     0.23  -0.22  -0.00     0.21  -0.18  -0.00     0.10  -0.08  -0.00
  11   1    -0.20  -0.14   0.03    -0.19  -0.13   0.03    -0.09  -0.06   0.01
  12   1     0.09   0.39   0.00     0.09   0.38   0.00     0.04   0.18   0.00
  13   1    -0.20  -0.14  -0.03    -0.19  -0.13  -0.03    -0.09  -0.06  -0.01
  14   8     0.03   0.17  -0.00    -0.24  -0.04   0.00     0.26  -0.05  -0.00
  15   6    -0.15  -0.08   0.00     0.29   0.02  -0.00    -0.27   0.04   0.00
  16   1     0.03  -0.10   0.01    -0.08   0.23  -0.03     0.09  -0.22   0.03
  17   1     0.08   0.19  -0.00    -0.16  -0.39   0.00     0.14   0.35  -0.00
  18   1     0.03  -0.10  -0.01    -0.08   0.23   0.03     0.09  -0.22  -0.03
  19   1    -0.19   0.07   0.00     0.15  -0.05  -0.00     0.06  -0.05  -0.00
  20   8    -0.08   0.20  -0.00    -0.05  -0.11   0.00     0.12  -0.25   0.00
  21   6    -0.05  -0.25   0.00     0.07   0.13  -0.00     0.04   0.31  -0.00
  22   1    -0.19   0.23  -0.00     0.13  -0.17   0.00     0.23  -0.30   0.00
  23   1     0.18  -0.03   0.03    -0.12   0.02  -0.01    -0.21   0.04  -0.03
  24   1     0.18  -0.03  -0.03    -0.12   0.02   0.01    -0.21   0.04   0.03
                     37                     38                     39
                        a                      a                      a 
 Frequencies --  1169.0849              1200.3878              1250.4443
 Red. masses --     7.0488                 4.3217                 4.2666
 Frc consts  --     0.0000                 0.0000                 0.0000
 IR Inten    --   615.0254                94.2195               108.8347
 Raman Activ --     0.0000                 0.0000                 0.0000
 Depolar     --     0.0000                 0.0000                 0.0000
 Atom AN      X      Y      Z        X      Y      Z        X      Y      Z
   1   6    -0.33  -0.07   0.00     0.11   0.01  -0.00    -0.06  -0.23   0.00
   2   6    -0.06   0.08  -0.00    -0.15   0.06   0.00     0.01  -0.03   0.00
   3   6    -0.11  -0.00   0.00    -0.12   0.23   0.00     0.14   0.24  -0.00
   4   6    -0.26  -0.18   0.00     0.22   0.00  -0.00    -0.22   0.16   0.00
   5   6    -0.01   0.12  -0.00     0.13  -0.05  -0.00    -0.14  -0.01   0.00
   6   6     0.00  -0.02   0.00    -0.10   0.01   0.00    -0.01  -0.10   0.00
   7   1     0.23  -0.04   0.00     0.41  -0.12   0.00     0.59  -0.19   0.00
   8   1     0.01   0.01  -0.00    -0.53  -0.43   0.00     0.26   0.20  -0.00
   9   8     0.19   0.13   0.00    -0.19   0.02   0.00     0.11  -0.05  -0.00
  10   6    -0.03  -0.11  -0.00     0.09  -0.03  -0.00    -0.06  -0.00   0.00
  11   1     0.01  -0.00  -0.00    -0.08  -0.06   0.00     0.06   0.01  -0.02
  12   1     0.00   0.05  -0.00     0.03   0.16   0.00    -0.01   0.04   0.00
  13   1     0.01  -0.00   0.00    -0.08  -0.06  -0.00     0.06   0.01   0.02
  14   8     0.08  -0.05  -0.00     0.15  -0.12  -0.00    -0.03  -0.10   0.00
  15   6    -0.03   0.04   0.00    -0.05   0.05   0.00     0.06   0.02  -0.00
  16   1     0.02  -0.02   0.01     0.03  -0.06   0.00    -0.02   0.02  -0.02
  17   1    -0.02  -0.02  -0.00     0.03   0.07  -0.00     0.01  -0.01   0.00
  18   1     0.02  -0.02  -0.01     0.03  -0.06  -0.00    -0.02   0.02   0.02
  19   1     0.57  -0.18  -0.00    -0.06   0.03   0.00    -0.43   0.14   0.00
  20   8     0.33   0.11  -0.00    -0.02   0.01   0.00     0.05   0.07  -0.00
  21   6    -0.17  -0.07   0.00     0.01  -0.04   0.00    -0.04  -0.03   0.00
  22   1    -0.15   0.17  -0.00    -0.06   0.10  -0.00    -0.01  -0.00  -0.00
  23   1     0.16  -0.02   0.02     0.02  -0.02  -0.01     0.05   0.00   0.01
  24   1     0.16  -0.02  -0.02     0.02  -0.02   0.01     0.05   0.00  -0.01
                     40                     41                     42
                        a                      a                      a 
 Frequencies --  1274.0742              1371.4202              1385.1561
 Red. masses --    11.9002                 9.2864                 2.6943
 Frc consts  --     0.0000                 0.0000                 0.0000
 IR Inten    --    99.8196                 5.4449                 0.0230
 Raman Activ --     0.0000                 0.0000                 0.0000
 Depolar     --     0.0000                 0.0000                 0.0000
 Atom AN      X      Y      Z        X      Y      Z        X      Y      Z
   1   6     0.42  -0.09  -0.00     0.12   0.44  -0.00     0.04  -0.07   0.00
   2   6    -0.22   0.14   0.00     0.16  -0.04  -0.00     0.07   0.04  -0.00
   3   6    -0.07   0.35  -0.00    -0.24  -0.16   0.00    -0.06  -0.02   0.00
   4   6    -0.24  -0.26   0.00    -0.25   0.41   0.00     0.02  -0.06   0.00
   5   6    -0.37  -0.09   0.00     0.04  -0.21   0.00     0.05   0.05  -0.00
   6   6     0.39   0.15  -0.00     0.02  -0.24   0.00    -0.08  -0.02   0.00
   7   1    -0.13  -0.02   0.00     0.11  -0.09  -0.00     0.00   0.02   0.00
   8   1     0.02  -0.04   0.00     0.02  -0.06   0.00     0.03   0.05  -0.00
   9   8     0.16   0.06   0.00     0.13  -0.04  -0.00     0.01   0.04   0.00
  10   6    -0.01  -0.06  -0.00    -0.11  -0.09  -0.00     0.05   0.07   0.00
  11   1     0.03   0.02   0.00     0.14   0.12   0.02    -0.09  -0.11  -0.03
  12   1     0.00   0.03   0.00    -0.00   0.15   0.00    -0.01  -0.15  -0.00
  13   1     0.03   0.02  -0.00     0.14   0.12  -0.02    -0.09  -0.11   0.03
  14   8     0.09  -0.14   0.00     0.07  -0.05  -0.00     0.02   0.11  -0.00
  15   6     0.02   0.06  -0.00    -0.02   0.09  -0.00     0.03   0.30  -0.00
  16   1     0.02  -0.03  -0.00     0.03  -0.11  -0.01     0.04  -0.48  -0.12
  17   1    -0.03  -0.06   0.00    -0.06  -0.08   0.00    -0.27  -0.44   0.00
  18   1     0.02  -0.03   0.00     0.03  -0.11   0.01     0.04  -0.48   0.12
  19   1     0.09  -0.01  -0.00     0.13  -0.04  -0.00    -0.07   0.04   0.00
  20   8    -0.21  -0.05   0.00    -0.10  -0.09   0.00    -0.02   0.03  -0.00
  21   6     0.06  -0.04   0.00     0.12  -0.03   0.00    -0.05   0.02   0.00
  22   1    -0.02   0.04  -0.00    -0.06   0.13   0.00     0.04  -0.08  -0.00
  23   1    -0.06  -0.00  -0.00    -0.18   0.06   0.02     0.08  -0.03  -0.01
  24   1    -0.06  -0.00   0.00    -0.18   0.06  -0.02     0.08  -0.03   0.01
                     43                     44                     45
                        a                      a                      a 
 Frequencies --  1387.3851              1392.2885              1425.1988
 Red. masses --     2.4391                 4.6162                10.2975
 Frc consts  --     0.0000                 0.0000                 0.0000
 IR Inten    --     0.1821                 1.9574                66.2959
 Raman Activ --     0.0000                 0.0000                 0.0000
 Depolar     --     0.0000                 0.0000                 0.0000
 Atom AN      X      Y      Z        X      Y      Z        X      Y      Z
   1   6     0.01  -0.01   0.00    -0.10  -0.24   0.00    -0.40   0.22   0.00
   2   6    -0.02   0.03  -0.00    -0.05   0.02   0.00    -0.11  -0.28   0.00
   3   6    -0.02  -0.03   0.00     0.10   0.05  -0.00     0.51   0.07  -0.00
   4   6    -0.02   0.02   0.00     0.18  -0.20  -0.00    -0.13   0.09   0.00
   5   6    -0.04   0.02  -0.00     0.06   0.13  -0.00    -0.13  -0.15   0.00
   6   6    -0.01  -0.05   0.00    -0.10   0.09   0.00     0.36   0.16  -0.00
   7   1     0.09  -0.02   0.00    -0.09   0.07  -0.00    -0.05  -0.04   0.00
   8   1     0.07   0.05  -0.00     0.03   0.08  -0.00    -0.22  -0.22   0.00
   9   8     0.06   0.07   0.00    -0.13  -0.05  -0.00     0.01  -0.05  -0.00
  10   6     0.10   0.21   0.00    -0.05  -0.16  -0.00     0.00   0.03   0.00
  11   1    -0.23  -0.29  -0.10     0.15   0.23   0.09    -0.01  -0.02  -0.01
  12   1    -0.03  -0.40  -0.00     0.03   0.31   0.00    -0.00  -0.03   0.00
  13   1    -0.23  -0.29   0.10     0.15   0.23  -0.09    -0.01  -0.02   0.01
  14   8     0.01  -0.01   0.00    -0.03   0.07  -0.00    -0.13   0.08   0.00
  15   6    -0.01  -0.03   0.00     0.02   0.05  -0.00     0.06   0.04  -0.00
  16   1     0.00   0.05   0.02    -0.01  -0.11  -0.04    -0.06  -0.08  -0.07
  17   1     0.03   0.05  -0.00    -0.06  -0.11   0.00    -0.04  -0.09  -0.00
  18   1     0.00   0.05  -0.02    -0.01  -0.11   0.04    -0.06  -0.08   0.07
  19   1     0.03  -0.01  -0.00    -0.09   0.03   0.00    -0.05  -0.08   0.00
  20   8     0.07  -0.04   0.00     0.14   0.01   0.00     0.11  -0.04   0.00
  21   6     0.17  -0.13   0.00     0.14  -0.14   0.00     0.05   0.04  -0.00
  22   1    -0.18   0.33   0.00    -0.19   0.32   0.00    -0.02   0.06   0.00
  23   1    -0.31   0.15   0.09    -0.28   0.16   0.10    -0.06  -0.06  -0.05
  24   1    -0.31   0.15  -0.09    -0.28   0.16  -0.10    -0.06  -0.06   0.05
                     46                     47                     48
                        a                      a                      a 
 Frequencies --  1456.0572              1457.7752              1458.8798
 Red. masses --     1.5482                 1.5488                 1.5498
 Frc consts  --     0.0000                 0.0000                 0.0000
 IR Inten    --     6.9388                 6.7283                 7.4579
 Raman Activ --     0.0000                 0.0000                 0.0000
 Depolar     --     0.0000                 0.0000                 0.0000
 Atom AN      X      Y      Z        X      Y      Z        X      Y      Z
   1   6    -0.00   0.00   0.00     0.00  -0.00  -0.00     0.00  -0.00  -0.00
   2   6    -0.00  -0.00   0.00     0.00   0.00  -0.00    -0.00   0.00   0.00
   3   6     0.00   0.00  -0.00    -0.00   0.00   0.00     0.00  -0.00   0.00
   4   6    -0.00   0.00   0.00    -0.00  -0.00  -0.00     0.00   0.00  -0.00
   5   6    -0.00  -0.00   0.00     0.00  -0.00   0.00    -0.00   0.00   0.00
   6   6     0.00   0.00  -0.00    -0.00  -0.00   0.00    -0.00  -0.00   0.00
   7   1    -0.00  -0.00   0.00    -0.00   0.00   0.00    -0.00   0.00  -0.02
   8   1    -0.00  -0.00  -0.00     0.00   0.00  -0.02     0.00   0.00   0.00
   9   8    -0.00  -0.00   0.00     0.00   0.00   0.00    -0.00   0.00  -0.03
  10   6     0.00  -0.00   0.01     0.00  -0.00   0.00    -0.00   0.00  -0.22
  11   1     0.02   0.00  -0.00     0.01   0.00  -0.00    -0.45  -0.10   0.09
  12   1     0.00   0.00  -0.02     0.00  -0.00  -0.01    -0.00  -0.00   0.72
  13   1    -0.02  -0.00  -0.00    -0.01  -0.00  -0.00     0.45   0.10   0.09
  14   8    -0.00  -0.00  -0.03     0.00  -0.00   0.00    -0.00   0.00  -0.00
  15   6    -0.00  -0.00  -0.22    -0.00  -0.00   0.00    -0.00   0.00  -0.01
  16   1     0.31  -0.34   0.09    -0.00   0.00  -0.00     0.01  -0.01   0.00
  17   1     0.00   0.00   0.72    -0.00  -0.00  -0.01    -0.00  -0.00   0.02
  18   1    -0.31   0.34   0.09     0.00  -0.00  -0.00    -0.01   0.01   0.00
  19   1    -0.00  -0.00  -0.02    -0.00   0.00   0.00     0.00  -0.00  -0.00
  20   8     0.00   0.00  -0.00    -0.00   0.00  -0.03    -0.00   0.00  -0.00
  21   6     0.00   0.00  -0.00     0.00   0.00  -0.22    -0.00  -0.00  -0.00
  22   1    -0.00   0.00   0.01    -0.00   0.00   0.72     0.00  -0.00   0.01
  23   1     0.00   0.00   0.00     0.45   0.10   0.09     0.01   0.00   0.00
  24   1    -0.00  -0.00   0.00    -0.45  -0.10   0.09    -0.01  -0.00   0.00
                     49                     50                     51
                        a                      a                      a 
 Frequencies --  1467.2390              1470.8577              1473.2073
 Red. masses --     5.4196                 1.7386                 1.7123
 Frc consts  --     0.0000                 0.0000                 0.0000
 IR Inten    --   305.4767                31.0346                 3.5371
 Raman Activ --     0.0000                 0.0000                 0.0000
 Depolar     --     0.0000                 0.0000                 0.0000
 Atom AN      X      Y      Z        X      Y      Z        X      Y      Z
   1   6    -0.09   0.01   0.00    -0.05  -0.00   0.00     0.01  -0.06   0.00
   2   6     0.26  -0.07  -0.00     0.05  -0.03  -0.00     0.03   0.02  -0.00
   3   6    -0.19   0.25   0.00     0.02   0.06  -0.00    -0.05  -0.00   0.00
   4   6    -0.25  -0.14   0.00    -0.07  -0.00   0.00     0.03  -0.04  -0.00
   5   6     0.24  -0.06  -0.00     0.04  -0.02  -0.00     0.03   0.03  -0.00
   6   6    -0.09   0.02   0.00    -0.00   0.01  -0.00    -0.06  -0.02   0.00
   7   1    -0.12   0.03  -0.00     0.01  -0.01  -0.00    -0.03   0.02  -0.00
   8   1    -0.04  -0.00   0.00    -0.01  -0.00   0.00     0.06   0.07   0.00
   9   8     0.10   0.03  -0.00     0.04  -0.02  -0.00    -0.03   0.02   0.00
  10   6     0.10  -0.05  -0.00     0.12  -0.06  -0.00    -0.07   0.04   0.00
  11   1    -0.19   0.17   0.17    -0.24   0.25   0.24     0.15  -0.16  -0.15
  12   1    -0.00  -0.15   0.00    -0.01  -0.19   0.00     0.01   0.12  -0.00
  13   1    -0.19   0.17  -0.17    -0.24   0.25  -0.24     0.15  -0.16   0.15
  14   8     0.08  -0.08  -0.00    -0.04  -0.03   0.00     0.00  -0.00   0.00
  15   6     0.13  -0.02  -0.00    -0.15   0.02   0.00    -0.02  -0.00   0.00
  16   1    -0.31  -0.04  -0.21     0.38   0.08   0.27     0.03   0.01   0.02
  17   1     0.11   0.16   0.00    -0.11  -0.17  -0.00    -0.01  -0.01  -0.00
  18   1    -0.31  -0.04   0.21     0.38   0.08  -0.27     0.03   0.01  -0.02
  19   1    -0.10   0.05   0.00    -0.08   0.02   0.00    -0.02   0.02   0.00
  20   8    -0.00   0.02   0.00     0.01   0.01   0.00     0.02   0.06   0.00
  21   6     0.04   0.03   0.00     0.03   0.04   0.00     0.11   0.15   0.00
  22   1    -0.03   0.07  -0.00    -0.03   0.06  -0.00    -0.13   0.24  -0.00
  23   1    -0.05  -0.11  -0.08    -0.04  -0.12  -0.09    -0.15  -0.46  -0.33
  24   1    -0.05  -0.11   0.08    -0.04  -0.12   0.09    -0.15  -0.46   0.33
                     52                     53                     54
                        a                      a                      a 
 Frequencies --  1478.3188              1581.6167              1598.8160
 Red. masses --     6.6873                11.6400                11.6386
 Frc consts  --     0.0000                 0.0000                 0.0000
 IR Inten    --   221.0153               123.5694               121.6678
 Raman Activ --     0.0000                 0.0000                 0.0000
 Depolar     --     0.0000                 0.0000                 0.0000
 Atom AN      X      Y      Z        X      Y      Z        X      Y      Z
   1   6     0.18  -0.04  -0.00     0.01   0.54  -0.00     0.26   0.07  -0.00
   2   6    -0.30   0.13   0.00     0.08  -0.20   0.00    -0.50   0.04   0.00
   3   6     0.11  -0.32   0.00     0.08   0.24  -0.00     0.43   0.15  -0.00
   4   6     0.28   0.19  -0.00     0.20  -0.45  -0.00    -0.26   0.03   0.00
   5   6    -0.30   0.09   0.00    -0.24   0.29  -0.00     0.43  -0.07  -0.00
   6   6     0.06  -0.07  -0.00    -0.12  -0.39   0.00    -0.35  -0.21   0.00
   7   1     0.23  -0.06   0.00     0.12   0.02  -0.00    -0.09   0.04  -0.00
   8   1     0.11   0.06  -0.00     0.13   0.03  -0.00     0.06   0.07  -0.00
   9   8    -0.06  -0.07  -0.00    -0.04   0.03   0.00     0.03  -0.00  -0.00
  10   6     0.07  -0.05  -0.00     0.02  -0.01  -0.00     0.00   0.01   0.00
  11   1    -0.16   0.19   0.17    -0.01   0.00   0.01    -0.00  -0.00  -0.00
  12   1    -0.01  -0.12   0.00     0.01   0.02   0.00    -0.00  -0.01  -0.00
  13   1    -0.16   0.19  -0.17    -0.01   0.00  -0.01    -0.00  -0.00   0.00
  14   8    -0.01   0.09  -0.00    -0.02   0.01   0.00    -0.04  -0.01   0.00
  15   6     0.06   0.00  -0.00     0.01  -0.01   0.00     0.02   0.01  -0.00
  16   1    -0.18  -0.06  -0.13     0.00   0.01   0.00    -0.01  -0.00  -0.01
  17   1     0.04   0.07   0.00    -0.00  -0.01   0.00    -0.01  -0.02   0.00
  18   1    -0.18  -0.06   0.13     0.00   0.01  -0.00    -0.01  -0.00   0.01
  19   1     0.20  -0.07  -0.00    -0.01  -0.04  -0.00     0.11  -0.08  -0.00
  20   8    -0.01  -0.00  -0.00    -0.04  -0.05   0.00    -0.03  -0.01   0.00
  21   6     0.01   0.05   0.00     0.01   0.02  -0.00    -0.01   0.01  -0.00
  22   1    -0.03   0.05  -0.00     0.02  -0.02   0.00     0.00  -0.01   0.00
  23   1    -0.03  -0.13  -0.10    -0.00   0.00  -0.00     0.01  -0.00  -0.00
  24   1    -0.03  -0.13   0.10    -0.00   0.00   0.00     0.01  -0.00   0.00
                     55                     56                     57
                        a                      a                      a 
 Frequencies --  2936.0508              2942.2999              2942.4883
 Red. masses --     1.9555                 1.9569                 1.9563
 Frc consts  --     0.0000                 0.0000                 0.0000
 IR Inten    --    48.6722                56.9893                36.6565
 Raman Activ --     0.0000                 0.0000                 0.0000
 Depolar     --     0.0000                 0.0000                 0.0000
 Atom AN      X      Y      Z        X      Y      Z        X      Y      Z
   1   6     0.00   0.00   0.00    -0.00  -0.00  -0.00     0.00   0.00  -0.00
   2   6     0.00  -0.00   0.00     0.00   0.00   0.00    -0.00  -0.00   0.00
   3   6    -0.00  -0.00   0.00    -0.00   0.00   0.00     0.00  -0.00   0.00
   4   6     0.00   0.00  -0.00    -0.00  -0.00  -0.00     0.00  -0.00   0.00
   5   6     0.00   0.00  -0.00    -0.00  -0.00  -0.00    -0.00  -0.00   0.00
   6   6    -0.00   0.00   0.00    -0.00   0.00   0.00     0.00  -0.00  -0.00
   7   1    -0.00  -0.00  -0.00     0.00   0.00   0.00     0.00   0.00  -0.00
   8   1     0.00  -0.00  -0.00     0.00  -0.00   0.00    -0.00   0.00  -0.00
   9   8    -0.00  -0.00   0.01     0.00   0.00   0.00    -0.00   0.00  -0.00
  10   6    -0.00  -0.00   0.29    -0.00   0.00  -0.00     0.00   0.00  -0.00
  11   1    -0.22   0.34  -0.54     0.00  -0.01   0.01     0.00  -0.00   0.00
  12   1    -0.00  -0.00   0.05     0.00   0.00  -0.00    -0.00   0.00  -0.00
  13   1     0.22  -0.34  -0.54    -0.00   0.01   0.01    -0.00   0.00   0.00
  14   8    -0.00  -0.00  -0.00    -0.00  -0.00  -0.01    -0.00  -0.00  -0.00
  15   6    -0.00  -0.00  -0.01    -0.00  -0.00  -0.29    -0.00  -0.00  -0.03
  16   1    -0.01  -0.00   0.01    -0.37  -0.15   0.54    -0.04  -0.02   0.06
  17   1     0.00  -0.00  -0.00     0.00  -0.00  -0.05     0.00  -0.00  -0.01
  18   1     0.01   0.00   0.01     0.37   0.15   0.54     0.04   0.02   0.06
  19   1     0.00   0.00   0.00    -0.00  -0.00   0.00     0.00   0.00   0.00
  20   8    -0.00  -0.00  -0.00     0.00  -0.00  -0.00    -0.00   0.00   0.01
  21   6     0.00   0.00   0.00     0.00  -0.00  -0.03    -0.00   0.00   0.29
  22   1    -0.00  -0.00   0.00     0.00   0.00  -0.01    -0.00   0.00   0.05
  23   1     0.00   0.00  -0.00    -0.01  -0.04   0.06     0.05   0.40  -0.54
  24   1    -0.00  -0.00  -0.00     0.01   0.04   0.06    -0.05  -0.40  -0.54
                     58                     59                     60
                        a                      a                      a 
 Frequencies --  2949.6882              2955.1509              2955.6095
 Red. masses --     1.4362                 1.4350                 1.4381
 Frc consts  --     0.0000                 0.0000                 0.0000
 IR Inten    --    53.4878                55.8220                34.9242
 Raman Activ --     0.0000                 0.0000                 0.0000
 Depolar     --     0.0000                 0.0000                 0.0000
 Atom AN      X      Y      Z        X      Y      Z        X      Y      Z
   1   6    -0.00  -0.00   0.00     0.00   0.00   0.00    -0.00  -0.00  -0.00
   2   6    -0.00  -0.00   0.00    -0.00  -0.00   0.00     0.00  -0.00   0.00
   3   6     0.00   0.00   0.00     0.00  -0.00   0.00     0.00  -0.00   0.00
   4   6    -0.00  -0.00  -0.00     0.00   0.00   0.00    -0.00   0.00   0.00
   5   6    -0.00  -0.00  -0.00     0.00  -0.00  -0.00     0.00   0.00   0.00
   6   6     0.00  -0.00   0.00     0.00  -0.00   0.00    -0.00   0.00  -0.00
   7   1     0.01   0.01  -0.00    -0.00  -0.00   0.00    -0.00  -0.00   0.00
   8   1    -0.00   0.00   0.00    -0.00   0.00  -0.00     0.01  -0.01   0.00
   9   8     0.01   0.02   0.00    -0.00  -0.00  -0.00     0.00  -0.00  -0.00
  10   6    -0.12   0.16   0.00     0.01  -0.01  -0.00     0.01  -0.01  -0.00
  11   1     0.19  -0.32   0.58    -0.01   0.02  -0.03    -0.01   0.02  -0.04
  12   1     0.00   0.02   0.00    -0.00  -0.00  -0.00    -0.00  -0.00  -0.00
  13   1     0.19  -0.32  -0.58    -0.01   0.02   0.03    -0.01   0.02   0.04
  14   8     0.00   0.00  -0.00     0.01   0.02  -0.00     0.00   0.01  -0.00
  15   6     0.01   0.00   0.00     0.17   0.06  -0.00     0.06   0.02  -0.00
  16   1    -0.03  -0.01   0.04    -0.32  -0.14   0.55    -0.12  -0.05   0.20
  17   1     0.00   0.00   0.00     0.01   0.01  -0.00     0.00   0.00  -0.00
  18   1    -0.03  -0.01  -0.04    -0.32  -0.14  -0.55    -0.12  -0.05  -0.20
  19   1    -0.00  -0.00  -0.00     0.00   0.01  -0.00    -0.00   0.00   0.00
  20   8     0.00  -0.00   0.00    -0.01   0.01  -0.00     0.01  -0.01   0.00
  21   6    -0.00  -0.01   0.00     0.01   0.07  -0.00    -0.03  -0.18   0.00
  22   1    -0.00  -0.00   0.00    -0.00   0.00  -0.00     0.01  -0.01   0.00
  23   1     0.00   0.02  -0.03    -0.01  -0.13   0.20     0.03   0.35  -0.55
  24   1     0.00   0.02   0.03    -0.01  -0.13  -0.20     0.03   0.35   0.55
                     61                     62                     63
                        a                      a                      a 
 Frequencies --  3033.4640              3033.6298              3034.9762
 Red. masses --     1.7048                 1.7029                 1.7080
 Frc consts  --     0.0000                 0.0000                 0.0000
 IR Inten    --    27.4491                 5.1107                14.8279
 Raman Activ --     0.0000                 0.0000                 0.0000
 Depolar     --     0.0000                 0.0000                 0.0000
 Atom AN      X      Y      Z        X      Y      Z        X      Y      Z
   1   6    -0.00   0.00   0.00    -0.00   0.00   0.00    -0.00   0.00   0.00
   2   6    -0.00  -0.00  -0.00    -0.00  -0.00   0.00    -0.00  -0.00   0.00
   3   6    -0.00   0.00   0.00     0.00   0.00  -0.00    -0.00   0.00   0.00
   4   6    -0.00  -0.00   0.00     0.00   0.00  -0.00     0.00   0.00   0.00
   5   6    -0.00   0.00  -0.00    -0.00  -0.00   0.00    -0.00  -0.00   0.00
   6   6     0.00  -0.00   0.00     0.00  -0.00   0.00     0.00  -0.00  -0.00
   7   1    -0.00  -0.00   0.00     0.00   0.00  -0.00     0.00   0.00  -0.00
   8   1    -0.00   0.00  -0.00    -0.00   0.00  -0.00    -0.00   0.00  -0.00
   9   8     0.00   0.00   0.00    -0.01  -0.01  -0.00     0.00   0.00   0.00
  10   6     0.09  -0.01   0.00    -0.23   0.02  -0.00     0.02  -0.00   0.00
  11   1     0.01  -0.00   0.00    -0.03   0.01  -0.01     0.00  -0.00   0.00
  12   1    -0.33   0.03  -0.00     0.90  -0.08   0.00    -0.06   0.01  -0.00
  13   1     0.01  -0.00  -0.00    -0.03   0.01   0.01     0.00  -0.00  -0.00
  14   8     0.00  -0.00   0.00     0.00  -0.00   0.00     0.00  -0.01   0.00
  15   6    -0.00   0.00  -0.00     0.02  -0.01  -0.00     0.22  -0.12  -0.00
  16   1    -0.00  -0.00   0.00     0.00  -0.00   0.00     0.04  -0.01  -0.01
  17   1     0.00  -0.00   0.00    -0.06   0.03   0.00    -0.84   0.47   0.00
  18   1    -0.00  -0.00  -0.00     0.00  -0.00  -0.00     0.04  -0.01   0.01
  19   1     0.00   0.00  -0.00     0.00   0.00  -0.00     0.00   0.00  -0.00
  20   8     0.01  -0.00  -0.00     0.00  -0.00  -0.00    -0.00   0.00  -0.00
  21   6     0.20   0.12   0.00     0.07   0.05   0.00    -0.00  -0.00  -0.00
  22   1    -0.78  -0.47  -0.00    -0.28  -0.17  -0.00     0.02   0.01   0.00
  23   1     0.03   0.03  -0.01     0.01   0.01  -0.00    -0.00  -0.00   0.00
  24   1     0.03   0.03   0.01     0.01   0.01   0.00    -0.00  -0.00  -0.00
                     64                     65                     66
                        a                      a                      a 
 Frequencies --  3112.8270              3123.8957              3128.0401
 Red. masses --     1.7829                 1.8723                 1.8274
 Frc consts  --     0.0000                 0.0000                 0.0000
 IR Inten    --    20.0660                59.9345                13.9090
 Raman Activ --     0.0000                 0.0000                 0.0000
 Depolar     --     0.0000                 0.0000                 0.0000
 Atom AN      X      Y      Z        X      Y      Z        X      Y      Z
   1   6    -0.01   0.00   0.00    -0.01  -0.00   0.00    -0.01  -0.01   0.00
   2   6     0.00   0.01  -0.00     0.02   0.06  -0.00    -0.09  -0.25   0.00
   3   6     0.00   0.00  -0.00    -0.00  -0.00   0.00     0.01  -0.01   0.00
   4   6    -0.01  -0.00   0.00     0.01  -0.00  -0.00     0.00   0.00  -0.00
   5   6    -0.05  -0.19   0.00     0.05   0.17  -0.00     0.01   0.03  -0.00
   6   6    -0.11   0.13   0.00    -0.13   0.16   0.00    -0.03   0.04   0.00
   7   1     0.21   0.70  -0.00    -0.17  -0.59   0.00    -0.03  -0.11   0.00
   8   1     0.41  -0.47  -0.00     0.46  -0.53  -0.00     0.12  -0.14  -0.00
   9   8    -0.00  -0.00  -0.00    -0.00   0.00   0.00    -0.00  -0.00  -0.00
  10   6     0.00  -0.00   0.00    -0.00   0.00  -0.00    -0.00   0.00   0.00
  11   1    -0.00   0.00  -0.00     0.00  -0.00   0.00     0.00  -0.00   0.00
  12   1    -0.00   0.00  -0.00     0.00  -0.00   0.00    -0.00  -0.00  -0.00
  13   1    -0.00   0.00   0.00     0.00  -0.00  -0.00     0.00  -0.00  -0.00
  14   8     0.00  -0.00   0.00     0.00   0.00  -0.00    -0.00  -0.00   0.00
  15   6     0.00   0.00  -0.00     0.00  -0.00   0.00    -0.00  -0.00   0.00
  16   1    -0.00  -0.00   0.00    -0.00  -0.00   0.00     0.00   0.00  -0.01
  17   1    -0.00  -0.00   0.00    -0.00   0.00   0.00     0.00  -0.00  -0.00
  18   1    -0.00  -0.00  -0.00    -0.00  -0.00  -0.00     0.00   0.00   0.01
  19   1    -0.01  -0.03   0.00    -0.07  -0.21   0.00     0.31   0.88  -0.00
  20   8    -0.00   0.00  -0.00    -0.00   0.00  -0.00     0.00   0.00   0.00
  21   6     0.00   0.00  -0.00     0.00   0.00  -0.00    -0.00   0.00  -0.00
  22   1    -0.00  -0.00   0.00    -0.00  -0.00   0.00     0.00   0.00   0.00
  23   1    -0.00  -0.00   0.00    -0.00  -0.00   0.01    -0.00  -0.00  -0.00
  24   1    -0.00  -0.00  -0.00    -0.00  -0.00  -0.01    -0.00  -0.00   0.00
