      -----------------------------------------------------------      
     |                   =====================                   |     
     |                           x T B                           |     
     |                   =====================                   |     
     |                         S. Grimme                         |     
     |          Mulliken Center for Theoretical Chemistry        |     
     |                    University of Bonn                     |     
      -----------------------------------------------------------      

   * xtb version 6.4.1 (afa7bdf) compiled by 'ehlert@majestix' on 2021-06-10

   xtb is free software: you can redistribute it and/or modify it under
   the terms of the GNU Lesser General Public License as published by
   the Free Software Foundation, either version 3 of the License, or
   (at your option) any later version.
   
   xtb is distributed in the hope that it will be useful,
   but WITHOUT ANY WARRANTY; without even the implied warranty of
   MERCHANTABILITY or FITNESS FOR A PARTICULAR PURPOSE.  See the
   GNU Lesser General Public License for more details.
   
   Cite this work as:
   * C. Bannwarth, E. Caldeweyher, S. Ehlert, A. Hansen, P. Pracht,
     J. Seibert, S. Spicher, S. Grimme, WIREs Comput. Mol. Sci., 2020, 11,
     e01493. DOI: 10.1002/wcms.1493
   
   for GFN2-xTB:
   * C. Bannwarth, S. Ehlert and S. Grimme., J. Chem. Theory Comput., 2019,
     15, 1652-1671. DOI: 10.1021/acs.jctc.8b01176
   for GFN1-xTB:
   * S. Grimme, C. Bannwarth, P. Shushkov, J. Chem. Theory Comput., 2017,
     13, 1989-2009. DOI: 10.1021/acs.jctc.7b00118
   for GFN0-xTB:
   * P. Pracht, E. Caldeweyher, S. Ehlert, S. Grimme, ChemRxiv, 2019, preprint.
     DOI: 10.26434/chemrxiv.8326202.v1
   for GFN-FF:
   * S. Spicher and S. Grimme, Angew. Chem. Int. Ed., 2020, 59, 15665-15673.
     DOI: 10.1002/anie.202004239
   
   for DFT-D4:
   * E. Caldeweyher, C. Bannwarth and S. Grimme, J. Chem. Phys., 2017,
     147, 034112. DOI: 10.1063/1.4993215
   * E. Caldeweyher, S. Ehlert, A. Hansen, H. Neugebauer, S. Spicher,
     C. Bannwarth and S. Grimme, J. Chem. Phys., 2019, 150, 154122.
     DOI: 10.1063/1.5090222
   * E. Caldeweyher, J.-M. Mewes, S. Ehlert and S. Grimme, Phys. Chem. Chem. Phys.
     2020, 22, 8499-8512. DOI: 10.1039/D0CP00502A
   
   for sTDA-xTB:
   * S. Grimme and C. Bannwarth, J. Chem. Phys., 2016, 145, 054103.
     DOI: 10.1063/1.4959605
   
   in the mass-spec context:
   * V. Asgeirsson, C. Bauer and S. Grimme, Chem. Sci., 2017, 8, 4879.
     DOI: 10.1039/c7sc00601b
   * J. Koopman and S. Grimme, ACS Omega 2019, 4, 12, 15120-15133.
     DOI: 10.1021/acsomega.9b02011
   
   for metadynamics refer to:
   * S. Grimme, J. Chem. Theory Comput., 2019, 155, 2847-2862
     DOI: 10.1021/acs.jctc.9b00143
   
   for SPH calculations refer to:
   * S. Spicher and S. Grimme, J. Chem. Theory Comput., 2021, 17, 1701-1714
     DOI: 10.1021/acs.jctc.0c01306
   
   with help from (in alphabetical order)
   P. Atkinson, C. Bannwarth, F. Bohle, G. Brandenburg, E. Caldeweyher
   M. Checinski, S. Dohm, S. Ehlert, S. Ehrlich, I. Gerasimov, J. Koopman
   C. Lavigne, S. Lehtola, F. März, M. Müller, F. Musil, H. Neugebauer
   J. Pisarek, C. Plett, P. Pracht, J. Seibert, P. Shushkov, S. Spicher
   M. Stahn, M. Steiner, T. Strunk, J. Stückrath, T. Rose, and J. Unsleber
   
 * started run on 2021/11/15 at 09:36:17.689     

           -------------------------------------------------
          |                Calculation Setup                |
           -------------------------------------------------

          program call               : xtb 22_3-methoxyaniline.xyz --gfn2 --chrg 0 --uhf 0 --alpb water --ohess -P 1
          coordinate file            : 22_3-methoxyaniline.xyz
          omp threads                :                     1
          number of atoms            :                    18
          number of electrons        :                    48
          charge                     :                     0
          spin                       :                   0.0
          first test random number   :      0.30032652920473

   ID    Z sym.   atoms
    1    6 C      1-6, 15
    2    1 H      7-10, 12, 13, 16-18
    3    7 N      11
    4    8 O      14

           -------------------------------------------------
          |                 G F N 2 - x T B                 |
           -------------------------------------------------

        Reference                      10.1021/acs.jctc.8b01176
      * Hamiltonian:
        H0-scaling (s, p, d)           1.850000    2.230000    2.230000
        zeta-weighting                 0.500000
      * Dispersion:
        s8                             2.700000
        a1                             0.520000
        a2                             5.000000
        s9                             5.000000
      * Repulsion:
        kExp                           1.500000    1.000000
        rExp                           1.000000
      * Coulomb:
        alpha                          2.000000
        third order                    shell-resolved
        anisotropic                    true
        a3                             3.000000
        a5                             4.000000
        cn-shift                       1.200000
        cn-exp                         4.000000
        max-rad                        5.000000

      * Solvation model:               ALPB
        Solvent                        water
        Parameter file                 internal GFN2-xTB/ALPB
        Dielectric constant                8.0200E+01
        Reference state                gsolv [1 M gas/solution]
        Free energy shift                  1.0808E-03 Eh       6.7819E-01 kcal/mol
        Temperature                        2.9815E+02 K
        Density                            1.0000E+00 kg/L
        Solvent mass                       1.8000E+01 g/mol
        Interaction kernel             P16
        Born radius scaling (c1)           1.4744E+00
        Born radii integrator          GBOBC
        Born offset                        0.0000E+00 a0       0.0000E+00 AA
        H-bond correction              true
        Ion screening                  false
        Surface tension                    1.0000E-05 Eh       1.5569E+01 dyn/cm
        Grid points                               230 per atom

          ...................................................
          :                      SETUP                      :
          :.................................................:
          :  # basis functions                  45          :
          :  # atomic orbitals                  45          :
          :  # shells                           27          :
          :  # electrons                        48          :
          :  max. iterations                   250          :
          :  Hamiltonian                  GFN2-xTB          :
          :  restarted?                      false          :
          :  GBSA solvation                   true          :
          :  PC potential                    false          :
          :  electronic temp.          300.0000000     K    :
          :  accuracy                    1.0000000          :
          :  -> integral cutoff          0.2500000E+02      :
          :  -> integral neglect         0.1000000E-07      :
          :  -> SCF convergence          0.1000000E-05 Eh   :
          :  -> wf. convergence          0.1000000E-03 e    :
          :  Broyden damping             0.4000000          :
          ...................................................

 iter      E             dE          RMSdq      gap      omega  full diag
   1    -26.9040473 -0.269040E+02  0.448E+00    3.55       0.0  T
   2    -26.9333335 -0.292862E-01  0.268E+00    3.88       1.0  T
   3    -26.9309516  0.238192E-02  0.125E+00    3.96       1.0  T
   4    -26.9385062 -0.755459E-02  0.280E-01    3.90       1.0  T
   5    -26.9389295 -0.423324E-03  0.774E-02    3.91       1.0  T
   6    -26.9389354 -0.591050E-05  0.407E-02    3.91       1.0  T
   7    -26.9389412 -0.573620E-05  0.154E-02    3.91       1.5  T
   8    -26.9389418 -0.666084E-06  0.364E-03    3.91       6.5  T
   9    -26.9389419 -0.282416E-07  0.203E-03    3.91      11.6  T
  10    -26.9389419 -0.128502E-07  0.991E-04    3.91      23.8  T
  11    -26.9389419 -0.412448E-08  0.359E-04    3.91      65.6  T

   *** convergence criteria satisfied after 11 iterations ***

         #    Occupation            Energy/Eh            Energy/eV
      -------------------------------------------------------------
         1        2.0000           -0.7106157             -19.3368
       ...           ...                  ...                  ...
        18        2.0000           -0.4562249             -12.4145
        19        2.0000           -0.4540792             -12.3561
        20        2.0000           -0.4318140             -11.7503
        21        2.0000           -0.4220251             -11.4839
        22        2.0000           -0.4178395             -11.3700
        23        2.0000           -0.3781799             -10.2908
        24        2.0000           -0.3551266              -9.6635 (HOMO)
        25                         -0.2113381              -5.7508 (LUMO)
        26                         -0.2021089              -5.4997
        27                         -0.0831931              -2.2638
        28                          0.0209362               0.5697
        29                          0.0522054               1.4206
       ...                                ...                  ...
        45                          0.6504881              17.7007
      -------------------------------------------------------------
                  HL-Gap            0.1437885 Eh            3.9127 eV
             Fermi-level           -0.2832323 Eh           -7.7071 eV

 SCC (total)                   0 d,  0 h,  0 min,  0.011 sec
 SCC setup                      ...        0 min,  0.000 sec (  4.084%)
 Dispersion                     ...        0 min,  0.000 sec (  1.125%)
 classical contributions        ...        0 min,  0.000 sec (  0.218%)
 integral evaluation            ...        0 min,  0.002 sec ( 14.087%)
 iterations                     ...        0 min,  0.005 sec ( 41.504%)
 molecular gradient             ...        0 min,  0.004 sec ( 36.705%)
 printout                       ...        0 min,  0.000 sec (  2.005%)

         :::::::::::::::::::::::::::::::::::::::::::::::::::::
         ::                     SUMMARY                     ::
         :::::::::::::::::::::::::::::::::::::::::::::::::::::
         :: total energy             -26.556179512650 Eh    ::
         :: total w/o Gsasa/hb       -26.551926383917 Eh    ::
         :: gradient norm              0.020467769074 Eh/a0 ::
         :: HOMO-LUMO gap              3.912684525845 eV    ::
         ::.................................................::
         :: SCC energy               -26.938941882636 Eh    ::
         :: -> isotropic ES            0.032445654099 Eh    ::
         :: -> anisotropic ES          0.006018873907 Eh    ::
         :: -> anisotropic XC          0.011985382028 Eh    ::
         :: -> dispersion             -0.013539949824 Eh    ::
         :: -> Gsolv                  -0.009450159206 Eh    ::
         ::    -> Gelec               -0.005197030473 Eh    ::
         ::    -> Gsasa               -0.001828259450 Eh    ::
         ::    -> Ghb                 -0.003505628981 Eh    ::
         ::    -> Gshift               0.001080759698 Eh    ::
         :: repulsion energy           0.382728375906 Eh    ::
         :: add. restraining           0.000000000000 Eh    ::
         :: total charge              -0.000000000000 e     ::
         :::::::::::::::::::::::::::::::::::::::::::::::::::::

      ----------------------------------------------------------- 
     |                   =====================                   |
     |                        A N C O P T                        |
     |                   =====================                   |
     |               Approximate Normal Coordinate               |
     |                Rational Function Optimizer                |
      ----------------------------------------------------------- 

          ...................................................
          :                      SETUP                      :
          :.................................................:
          :   optimization level            normal          :
          :   max. optcycles                   200          :
          :   ANC micro-cycles                  20          :
          :   degrees of freedom                48          :
          :.................................................:
          :   RF solver                   davidson          :
          :   write xtbopt.log                true          :
          :   linear?                        false          :
          :   energy convergence         0.5000000E-05 Eh   :
          :   grad. convergence          0.1000000E-02 Eh/α :
          :   maximium RF displ.         1.0000000          :
          :   Hlow (freq-cutoff)         0.1000000E-01      :
          :   Hmax (freq-cutoff)         5.0000000          :
          :   S6 in model hess.         20.0000000          :
          ...................................................

generating ANC from model Hessian ...
Using Lindh-Hessian (1995)
 Shifting diagonal of input Hessian by   7.181826277593848E-003
 Lowest  eigenvalues of input Hessian
    0.000000    0.000000    0.000000    0.000000    0.000000    0.000000
    0.010000    0.011912    0.013623    0.015039    0.021300    0.024772
    0.031082    0.034531    0.035911    0.044655    0.064079    0.072315
 Highest eigenvalues
    1.552899    1.735123    1.765785    1.870784    2.006809    2.080541
 

........................................................................
.............................. CYCLE    1 ..............................
........................................................................
   1    -26.9389419 -0.269389E+02  0.112E-04    3.91       0.0  T
   2    -26.9389419 -0.510418E-10  0.757E-05    3.91     311.5  T
   3    -26.9389419 -0.157065E-10  0.504E-05    3.91     468.1  T
     SCC iter.                  ...        0 min,  0.003 sec
     gradient                   ...        0 min,  0.004 sec
 * total energy  :   -26.5561795 Eh     change       -0.4325464E-09 Eh
   gradient norm :     0.0204693 Eh/α   predicted     0.0000000E+00 (-100.00%)
   displ. norm   :     0.1043415 α      lambda       -0.1469395E-02
   maximum displ.:     0.0540485 α      in ANC's #27, #3, #14, ...

........................................................................
.............................. CYCLE    2 ..............................
........................................................................
   1    -26.9539237 -0.269539E+02  0.112E-01    3.96       0.0  T
   2    -26.9539300 -0.629810E-05  0.664E-02    3.96       1.0  T
   3    -26.9539251  0.486678E-05  0.307E-02    3.96       1.0  T
   4    -26.9539328 -0.762728E-05  0.302E-03    3.96       7.8  T
   5    -26.9539328 -0.334961E-07  0.200E-03    3.96      11.8  T
   6    -26.9539328 -0.122869E-07  0.954E-04    3.96      24.7  T
   7    -26.9539328 -0.288655E-08  0.333E-04    3.96      70.8  T
     SCC iter.                  ...        0 min,  0.004 sec
     gradient                   ...        0 min,  0.005 sec
 * total energy  :   -26.5571019 Eh     change       -0.9223719E-03 Eh
   gradient norm :     0.0078876 Eh/α   predicted    -0.7426947E-03 ( -19.48%)
   displ. norm   :     0.0610545 α      lambda       -0.2432663E-03
   maximum displ.:     0.0333835 α      in ANC's #3, #4, #27, ...

........................................................................
.............................. CYCLE    3 ..............................
........................................................................
   1    -26.9587891 -0.269588E+02  0.592E-02    3.96       0.0  T
   2    -26.9587941 -0.501403E-05  0.336E-02    3.97       1.0  T
   3    -26.9587941 -0.396426E-07  0.197E-02    3.97       1.2  T
   4    -26.9587958 -0.170603E-05  0.226E-03    3.97      10.4  T
   5    -26.9587959 -0.218714E-07  0.129E-03    3.97      18.2  T
   6    -26.9587959 -0.439747E-08  0.785E-04    3.97      30.0  T
   7    -26.9587959 -0.217436E-08  0.227E-04    3.97     103.8  T
     SCC iter.                  ...        0 min,  0.005 sec
     gradient                   ...        0 min,  0.003 sec
 * total energy  :   -26.5572637 Eh     change       -0.1617939E-03 Eh
   gradient norm :     0.0049340 Eh/α   predicted    -0.1220861E-03 ( -24.54%)
   displ. norm   :     0.0575409 α      lambda       -0.1134975E-03
   maximum displ.:     0.0304824 α      in ANC's #3, #4, #2, ...

........................................................................
.............................. CYCLE    4 ..............................
........................................................................
   1    -26.9599194 -0.269599E+02  0.499E-02    3.95       0.0  T
   2    -26.9599247 -0.527650E-05  0.276E-02    3.96       1.0  T
   3    -26.9599253 -0.592777E-06  0.168E-02    3.96       1.4  T
   4    -26.9599263 -0.975455E-06  0.242E-03    3.96       9.7  T
   5    -26.9599263 -0.221612E-07  0.118E-03    3.96      19.9  T
   6    -26.9599263 -0.348492E-08  0.685E-04    3.96      34.4  T
   7    -26.9599263 -0.170732E-08  0.195E-04    3.96     121.0  T
     SCC iter.                  ...        0 min,  0.004 sec
     gradient                   ...        0 min,  0.005 sec
 * total energy  :   -26.5573450 Eh     change       -0.8131614E-04 Eh
   gradient norm :     0.0035606 Eh/α   predicted    -0.5693647E-04 ( -29.98%)
   displ. norm   :     0.0531556 α      lambda       -0.7005315E-04
   maximum displ.:     0.0290846 α      in ANC's #4, #2, #3, ...

........................................................................
.............................. CYCLE    5 ..............................
........................................................................
   1    -26.9593913 -0.269594E+02  0.453E-02    3.93       0.0  T
   2    -26.9593956 -0.426188E-05  0.250E-02    3.94       1.0  T
   3    -26.9593960 -0.430567E-06  0.151E-02    3.94       1.6  T
   4    -26.9593968 -0.813568E-06  0.235E-03    3.94      10.0  T
   5    -26.9593969 -0.179618E-07  0.110E-03    3.94      21.4  T
   6    -26.9593969 -0.251990E-08  0.577E-04    3.94      40.8  T
   7    -26.9593969 -0.135405E-08  0.140E-04    3.94     167.8  T
     SCC iter.                  ...        0 min,  0.004 sec
     gradient                   ...        0 min,  0.005 sec
 * total energy  :   -26.5573889 Eh     change       -0.4392289E-04 Eh
   gradient norm :     0.0021510 Eh/α   predicted    -0.3512336E-04 ( -20.03%)
   displ. norm   :     0.0190035 α      lambda       -0.1345085E-04
   maximum displ.:     0.0102965 α      in ANC's #4, #2, #11, ...

........................................................................
.............................. CYCLE    6 ..............................
........................................................................
   1    -26.9589904 -0.269590E+02  0.169E-02    3.93       0.0  T
   2    -26.9589907 -0.347935E-06  0.956E-03    3.93       2.5  T
   3    -26.9589907  0.256163E-07  0.518E-03    3.93       4.6  T
   4    -26.9589908 -0.138245E-06  0.846E-04    3.94      27.9  T
   5    -26.9589908 -0.147293E-08  0.407E-04    3.94      57.9  T
     SCC iter.                  ...        0 min,  0.004 sec
     gradient                   ...        0 min,  0.005 sec
 * total energy  :   -26.5573974 Eh     change       -0.8530361E-05 Eh
   gradient norm :     0.0009393 Eh/α   predicted    -0.6726725E-05 ( -21.14%)
   displ. norm   :     0.0161361 α      lambda       -0.2625720E-05
   maximum displ.:     0.0100475 α      in ANC's #3, #2, #4, ...

........................................................................
.............................. CYCLE    7 ..............................
........................................................................
   1    -26.9589445 -0.269589E+02  0.111E-02    3.93       0.0  T
   2    -26.9589446 -0.637880E-07  0.639E-03    3.93       3.7  T
   3    -26.9589446  0.278102E-07  0.241E-03    3.93       9.8  T
   4    -26.9589446 -0.510405E-07  0.499E-04    3.93      47.2  T
   5    -26.9589446 -0.260414E-09  0.236E-04    3.93      99.8  T
     SCC iter.                  ...        0 min,  0.003 sec
     gradient                   ...        0 min,  0.004 sec
 * total energy  :   -26.5573992 Eh     change       -0.1757680E-05 Eh
   gradient norm :     0.0003950 Eh/α   predicted    -0.1313607E-05 ( -25.26%)
   displ. norm   :     0.0041807 α      lambda       -0.3298670E-06
   maximum displ.:     0.0032602 α      in ANC's #3, #1, #4, ...

   *** GEOMETRY OPTIMIZATION CONVERGED AFTER 7 ITERATIONS ***

------------------------------------------------------------------------
 total energy gain   :        -0.0012197 Eh       -0.7654 kcal/mol
 total RMSD          :         0.0606607 a0        0.0321 Å
 total power (kW/mol):        -0.4574720 (step)  -39.1107 (real)
------------------------------------------------------------------------

 ANCopt (total)                0 d,  0 h,  0 min,  0.082 sec
 optimizer setup                ...        0 min,  0.000 sec (  0.243%)
 model hessian                  ...        0 min,  0.002 sec (  2.357%)
 ANC generation                 ...        0 min,  0.001 sec (  0.673%)
 coordinate transformation      ...        0 min,  0.000 sec (  0.088%)
 single point calculation       ...        0 min,  0.076 sec ( 92.555%)
 optimization log               ...        0 min,  0.002 sec (  2.096%)
 hessian update                 ...        0 min,  0.000 sec (  0.073%)
 rational function              ...        0 min,  0.001 sec (  1.233%)

================
 final structure:
================
18
 xtb: 6.4.1 (afa7bdf)
C         0.26029642719934    1.64138915045590   -0.00157671844319
C         0.82247678041212    0.36409697861151    0.00352115401739
C         0.00436905511117   -0.75297629379960    0.01653495735632
C        -1.38699866448059   -0.60987586142262    0.01948558756822
C        -1.93842912903227    0.67219210879442    0.01470930030358
C        -1.11341980397103    1.78023510180941    0.00333415755338
H         0.91741726280777    2.49595594627760   -0.00868244829736
H         0.41912084429492   -1.74880146034937    0.01992833993542
H        -3.01140744283163    0.79087895532317    0.01745601894318
H        -1.54679599545386    2.76933030114316    0.00108312182960
N        -2.19303319861715   -1.72159384789665   -0.04157179951551
H        -1.78097876676318   -2.59451925379546    0.24164892026963
H        -3.15325722931167   -1.59093732318421    0.22807707734163
O         2.19260719375749    0.32339922811807    0.00067204975780
C         2.83323212848615   -0.93632709997551   -0.00373990643159
H         3.89858805434873   -0.71612636529066   -0.01371743786459
H         2.58585816826430   -1.50933364006760    0.89431194549657
H         2.56879731577938   -1.51162662475157   -0.89534431982050
 
 Bond Distances (Angstroems)
 ---------------------------
C1-C2=1.3955         C1-C6=1.3807         C1-H7=1.0780         C2-C1=1.3955         C2-C3=1.3847         C2-O14=1.3707        
C3-C2=1.3847         C3-C4=1.3987         C3-H8=1.0787         C4-C3=1.3987         C4-C5=1.3956         C4-N11=1.3745        
C5-C4=1.3956         C5-C6=1.3815         C5-H9=1.0795         C6-C1=1.3807         C6-C5=1.3815         C6-H10=1.0799        
H7-C1=1.0780         H8-C3=1.0787         H9-C5=1.0795         H10-C6=1.0799        N11-C4=1.3745        N11-H12=1.0060       
N11-H13=1.0059       H12-N11=1.0060       H13-N11=1.0059       O14-C2=1.3707        O14-C15=1.4133       C15-O14=1.4133       
C15-H16=1.0879       C15-H17=1.0936       C15-H18=1.0936       H16-C15=1.0879       H17-C15=1.0936       H18-C15=1.0936       
 C  H  Rav=1.0845 sigma=0.0065  Rmin=1.0780  Rmax=1.0936     7
 C  C  Rav=1.3895 sigma=0.0073  Rmin=1.3807  Rmax=1.3987     6
 N  H  Rav=1.0059 sigma=0.0000  Rmin=1.0059  Rmax=1.0060     2
 N  C  Rav=1.3745 sigma=0.0000  Rmin=1.3745  Rmax=1.3745     1
 O  C  Rav=1.3920 sigma=0.0213  Rmin=1.3707  Rmax=1.4133     2
 
 selected bond angles (degree)
 --------------------
C6-C1-C2=119.53                H7-C1-C2=118.69                H7-C1-C6=121.79                C3-C2-C1=120.03                
O14-C2-C1=115.46               O14-C2-C3=124.52               C4-C3-C2=120.35                H8-C3-C2=121.17                
H8-C3-C4=118.48                C5-C4-C3=119.14                N11-C4-C3=120.03               N11-C4-C5=120.74               
C6-C5-C4=120.06                H9-C5-C4=119.58                H9-C5-C6=120.36                C5-C6-C1=120.90                
H10-C6-C1=119.43               H10-C6-C5=119.67               
 
 selected dihedral angles (degree)
 ---------------------------------
C3-C2-C1-C6=359.85            C3-C2-C1-H7=179.81            O14-C2-C1-C6=180.12           O14-C2-C1-H7=  0.08           
C4-C3-C2-C1=  0.24            C4-C3-C2-O14=179.95           H8-C3-C2-C1=179.95            H8-C3-C2-O14=359.66           
C5-C4-C3-C2=359.74            C5-C4-C3-H8=180.02            N11-C4-C3-C2=176.44           N11-C4-C3-H8=356.72           
C6-C5-C4-C3=  0.18            C6-C5-C4-N11=183.51           H9-C5-C4-C3=180.03            H9-C5-C4-N11=  3.36           
C5-C6-C1-C2=  0.07            C5-C6-C1-H7=180.11            H10-C6-C1-C2=179.90           H10-C6-C1-H7=359.93           
C1-C6-C5-C4=359.91            C1-C6-C5-H9=180.06            H10-C6-C5-C4=180.08           H10-C6-C5-H9=  0.24           
           -------------------------------------------------
          |                Final Singlepoint                |
           -------------------------------------------------

          ...................................................
          :                      SETUP                      :
          :.................................................:
          :  # basis functions                  45          :
          :  # atomic orbitals                  45          :
          :  # shells                           27          :
          :  # electrons                        48          :
          :  max. iterations                   250          :
          :  Hamiltonian                  GFN2-xTB          :
          :  restarted?                      false          :
          :  GBSA solvation                   true          :
          :  PC potential                    false          :
          :  electronic temp.          300.0000000     K    :
          :  accuracy                    1.0000000          :
          :  -> integral cutoff          0.2500000E+02      :
          :  -> integral neglect         0.1000000E-07      :
          :  -> SCF convergence          0.1000000E-05 Eh   :
          :  -> wf. convergence          0.1000000E-03 e    :
          :  Broyden damping             0.4000000          :
          ...................................................

 iter      E             dE          RMSdq      gap      omega  full diag
   1    -26.9589446 -0.269589E+02  0.108E-04    3.93       0.0  T
   2    -26.9589446 -0.237286E-10  0.747E-05    3.93     315.5  T
   3    -26.9589446 -0.851585E-11  0.435E-05    3.93     541.7  T

   *** convergence criteria satisfied after 3 iterations ***

         #    Occupation            Energy/Eh            Energy/eV
      -------------------------------------------------------------
         1        2.0000           -0.7106287             -19.3372
       ...           ...                  ...                  ...
        18        2.0000           -0.4568103             -12.4304
        19        2.0000           -0.4531168             -12.3299
        20        2.0000           -0.4302488             -11.7077
        21        2.0000           -0.4206547             -11.4466
        22        2.0000           -0.4178763             -11.3710
        23        2.0000           -0.3775962             -10.2749
        24        2.0000           -0.3513998              -9.5621 (HOMO)
        25                         -0.2068581              -5.6289 (LUMO)
        26                         -0.1971661              -5.3652
        27                         -0.0755296              -2.0553
        28                          0.0288717               0.7856
        29                          0.0520894               1.4174
       ...                                ...                  ...
        45                          0.6784389              18.4613
      -------------------------------------------------------------
                  HL-Gap            0.1445418 Eh            3.9332 eV
             Fermi-level           -0.2791290 Eh           -7.5955 eV

 SCC (total)                   0 d,  0 h,  0 min,  0.008 sec
 SCC setup                      ...        0 min,  0.000 sec (  5.526%)
 Dispersion                     ...        0 min,  0.000 sec (  0.680%)
 classical contributions        ...        0 min,  0.000 sec (  0.202%)
 integral evaluation            ...        0 min,  0.002 sec ( 24.323%)
 iterations                     ...        0 min,  0.002 sec ( 29.038%)
 molecular gradient             ...        0 min,  0.003 sec ( 37.736%)
 printout                       ...        0 min,  0.000 sec (  2.145%)

         :::::::::::::::::::::::::::::::::::::::::::::::::::::
         ::                     SUMMARY                     ::
         :::::::::::::::::::::::::::::::::::::::::::::::::::::
         :: total energy             -26.557399206298 Eh    ::
         :: total w/o Gsasa/hb       -26.553134422256 Eh    ::
         :: gradient norm              0.000395547755 Eh/a0 ::
         :: HOMO-LUMO gap              3.933182237045 eV    ::
         ::.................................................::
         :: SCC energy               -26.958944615830 Eh    ::
         :: -> isotropic ES            0.032781152517 Eh    ::
         :: -> anisotropic ES          0.005547423377 Eh    ::
         :: -> anisotropic XC          0.011128208498 Eh    ::
         :: -> dispersion             -0.013599282079 Eh    ::
         :: -> Gsolv                  -0.009759931890 Eh    ::
         ::    -> Gelec               -0.005495147847 Eh    ::
         ::    -> Gsasa               -0.001717513706 Eh    ::
         ::    -> Ghb                 -0.003628030034 Eh    ::
         ::    -> Gshift               0.001080759698 Eh    ::
         :: repulsion energy           0.401512481968 Eh    ::
         :: add. restraining           0.000000000000 Eh    ::
         :: total charge              -0.000000000000 e     ::
         :::::::::::::::::::::::::::::::::::::::::::::::::::::

           ------------------------------------------------- 
          |                Numerical Hessian                |
           ------------------------------------------------- 
step length          :   0.00500
SCC accuracy         :   0.30000
Hessian scale factor :   1.00000
frozen atoms in %    :   0.00000    0
RMS gradient         :   0.00040
estimated CPU  time      0.02 min
estimated wall time      0.02 min

writing file <hessian>.

 projected vibrational frequencies (cm⁻¹)
eigval :       -0.00    -0.00    -0.00     0.00     0.00     0.00
eigval :       91.99   189.83   209.73   218.28   259.37   367.30
eigval :      387.49   424.17   444.52   488.17   511.99   534.13
eigval :      585.46   651.90   727.71   773.57   831.55   851.44
eigval :      916.27   953.75   988.06  1023.96  1057.83  1116.22
eigval :     1120.06  1151.38  1166.75  1187.61  1271.20  1311.56
eigval :     1345.53  1388.30  1449.63  1461.93  1465.07  1473.65
eigval :     1496.50  1582.00  1601.75  2935.64  2949.45  3029.80
eigval :     3071.63  3084.07  3095.88  3104.75  3474.32  3531.96
           -------------------------------------------------
          |                Property Printout                |
           -------------------------------------------------

    * Orbital Energies and Occupations

         #    Occupation            Energy/Eh            Energy/eV
      -------------------------------------------------------------
         1        2.0000           -0.7106284             -19.3372
       ...           ...                  ...                  ...
        12        2.0000           -0.5132038             -13.9650
        13        2.0000           -0.5029254             -13.6853
        14        2.0000           -0.5019157             -13.6578
        15        2.0000           -0.4832088             -13.1488
        16        2.0000           -0.4760354             -12.9536
        17        2.0000           -0.4657414             -12.6735
        18        2.0000           -0.4568101             -12.4304
        19        2.0000           -0.4531166             -12.3299
        20        2.0000           -0.4302490             -11.7077
        21        2.0000           -0.4206547             -11.4466
        22        2.0000           -0.4178763             -11.3710
        23        2.0000           -0.3775962             -10.2749
        24        2.0000           -0.3514000              -9.5621 (HOMO)
        25                         -0.2068581              -5.6289 (LUMO)
        26                         -0.1971662              -5.3652
        27                         -0.0755297              -2.0553
        28                          0.0288719               0.7856
        29                          0.0520895               1.4174
        30                          0.1212451               3.2992
        31                          0.1304478               3.5497
        32                          0.1475765               4.0158
        33                          0.1651311               4.4934
        34                          0.1969278               5.3587
        35                          0.2043391               5.5603
       ...                                ...                  ...
        45                          0.6784388              18.4613
      -------------------------------------------------------------
                  HL-Gap            0.1445418 Eh            3.9332 eV
             Fermi-level           -0.2791290 Eh           -7.5955 eV

     #   Z          covCN         q      C6AA      α(0)
     1   6 C        2.919    -0.082    30.040     8.988
     2   6 C        2.862     0.134    25.059     8.205
     3   6 C        2.922    -0.106    30.674     9.082
     4   6 C        2.899     0.078    26.251     8.401
     5   6 C        2.922    -0.083    30.072     8.993
     6   6 C        2.919    -0.039    28.961     8.825
     7   1 H        0.926     0.030     2.585     2.514
     8   1 H        0.926     0.035     2.510     2.477
     9   1 H        0.926     0.031     2.572     2.508
    10   1 H        0.926     0.032     2.555     2.500
    11   7 N        2.642    -0.315    28.097     7.872
    12   1 H        0.860     0.199     1.111     1.651
    13   1 H        0.860     0.199     1.110     1.650
    14   8 O        1.704    -0.317    19.297     5.931
    15   6 C        3.640     0.027    20.478     6.507
    16   1 H        0.925     0.074     2.042     2.235
    17   1 H        0.924     0.050     2.324     2.384
    18   1 H        0.924     0.050     2.314     2.379

 Mol. C6AA /au·bohr⁶  :       3493.754560
 Mol. C8AA /au·bohr⁸  :      81677.677917
 Mol. α(0) /au        :         93.102989


Wiberg/Mayer (AO) data.
largest (>0.10) Wiberg bond orders for each atom

 ---------------------------------------------------------------------------
     #   Z sym  total        # sym  WBO       # sym  WBO       # sym  WBO
 ---------------------------------------------------------------------------
     1   6 C    3.982 --     6 C    1.448     2 C    1.342     7 H    0.970
     2   6 C    3.928 --     3 C    1.405     1 C    1.342    14 O    1.040
     3   6 C    3.974 --     2 C    1.405     4 C    1.336     8 H    0.963
     4   6 C    3.976 --     5 C    1.343     3 C    1.336    11 N    1.181
     5   6 C    3.982 --     6 C    1.448     4 C    1.343     9 H    0.969
     6   6 C    3.992 --     1 C    1.448     5 C    1.448    10 H    0.971
     7   1 H    0.999 --     1 C    0.970
     8   1 H    0.999 --     3 C    0.963
     9   1 H    0.999 --     5 C    0.969
    10   1 H    0.998 --     6 C    0.971
    11   7 N    3.255 --     4 C    1.181    13 H    0.941    12 H    0.941
    12   1 H    0.960 --    11 N    0.941
    13   1 H    0.960 --    11 N    0.941
    14   8 O    2.189 --     2 C    1.040    15 C    0.975
    15   6 C    3.936 --    16 H    0.978    17 H    0.977    18 H    0.977
                            14 O    0.975
    16   1 H    0.994 --    15 C    0.978
    17   1 H    0.998 --    15 C    0.977
    18   1 H    0.997 --    15 C    0.977
 ---------------------------------------------------------------------------

Topologies differ in total number of bonds
Writing topology from bond orders to xtbtopo.mol

molecular dipole:
                 x           y           z       tot (Debye)
 q only:       -0.535      -1.275       0.198
   full:       -0.527      -1.391       0.378       3.902
molecular quadrupole (traceless):
                xx          xy          yy          xz          yz          zz
 q only:        4.022      -0.392       1.300      -1.416      -1.175      -5.322
  q+dip:        4.773      -0.449       2.935      -2.710      -2.323      -7.708
   full:        4.075      -0.796       2.092      -2.714      -2.321      -6.167

           -------------------------------------------------
          |                Geometry Summary                 |
           -------------------------------------------------

      molecular mass/u    :      123.1527262
   center of mass at/Å    :       -0.0077912       0.0271569       0.0044243
  moments of inertia/u·Å² :        0.1761273E+03   0.3891695E+03   0.5617816E+03
rotational constants/cm⁻¹ :        0.9571277E-01   0.4331694E-01   0.3000745E-01

 * 18 selected distances

     #   Z          #   Z                                           value/Å
     1   6 C        2   6 C                                       1.3955458
     2   6 C        3   6 C                                       1.3846741
     3   6 C        4   6 C                                       1.3987103
     4   6 C        5   6 C                                       1.3956349
     1   6 C        6   6 C                                       1.3807239
     5   6 C        6   6 C                                       1.3814952
     1   6 C        7   1 H                                       1.0780272
     3   6 C        8   1 H                                       1.0787485
     5   6 C        9   1 H                                       1.0795261
     6   6 C       10   1 H                                       1.0798747
     4   6 C       11   7 N                                       1.3745314
    11   7 N       12   1 H                                       1.0059829
    11   7 N       13   1 H                                       1.0058886 (min)
     2   6 C       14   8 O                                       1.3707377
    14   8 O       15   6 C                                       1.4132693 (max)
    15   6 C       16   1 H                                       1.0879206
    15   6 C       17   1 H                                       1.0936304
    15   6 C       18   1 H                                       1.0935510

 * 5 distinct bonds (by element types)

   Z      Z             #   av. dist./Å        max./Å        min./Å
   1 H    6 C           7     1.0844683     1.0936304     1.0780272
   6 C    6 C           6     1.3894640     1.3987103     1.3807239
   1 H    7 N           2     1.0059357     1.0059829     1.0058886
   6 C    7 N           1     1.3745314     1.3745314     1.3745314
   6 C    8 O           2     1.3920035     1.4132693     1.3707377

           -------------------------------------------------
          |               Frequency Printout                |
           -------------------------------------------------
 projected vibrational frequencies (cm⁻¹)
eigval :       -0.00    -0.00    -0.00     0.00     0.00     0.00
eigval :       91.99   189.83   209.73   218.28   259.37   367.30
eigval :      387.49   424.17   444.52   488.17   511.99   534.13
eigval :      585.46   651.90   727.71   773.57   831.55   851.44
eigval :      916.27   953.75   988.06  1023.96  1057.83  1116.22
eigval :     1120.06  1151.38  1166.75  1187.61  1271.20  1311.56
eigval :     1345.53  1388.30  1449.63  1461.93  1465.07  1473.65
eigval :     1496.50  1582.00  1601.75  2935.64  2949.45  3029.80
eigval :     3071.63  3084.07  3095.88  3104.75  3474.32  3531.96
 reduced masses (amu)
   1: 10.74   2: 11.65   3: 11.49   4: 11.37   5: 11.76   6: 12.00   7:  9.97   8:  7.57
   9:  9.61  10:  9.99  11:  5.56  12:  7.20  13:  4.56  14:  8.86  15: 10.86  16:  7.52
  17:  8.20  18: 11.68  19: 11.47  20: 10.12  21: 11.66  22:  3.95  23:  3.37  24:  3.88
  25:  3.13  26:  9.46  27: 10.58  28:  5.73  29: 10.80  30:  3.70  31:  3.49  32:  4.93
  33:  5.36  34:  4.53  35:  3.97  36:  9.11  37: 11.58  38:  2.56  39:  6.32  40:  1.55
  41:  8.07  42:  1.94  43:  8.57  44: 11.52  45: 11.53  46:  1.95  47:  1.44  48:  1.69
  49:  1.76  50:  1.86  51:  1.82  52:  1.86  53:  1.45  54:  2.17
 IR intensities (km·mol⁻¹)
   1:  0.59   2:  0.82   3:  1.92   4:  0.64   5:  0.53   6:  0.20   7:  5.61   8:  0.62
   9:  0.84  10:  3.99  11:  1.06  12: 13.07  13:  8.27  14:  9.55  15:  5.79  16:351.31
  17:164.80  18: 30.26  19:  5.69  20:  9.41  21: 26.07  22: 69.72  23:  0.48  24:  0.13
  25:  0.01  26: 66.26  27:  3.21  28: 16.61  29:109.14  30:  3.01  31:  1.36  32:  9.40
  33:300.64  34:136.04  35: 22.54  36:149.17  37:  9.76  38:  0.40  39: 11.22  40:  5.61
  41: 72.95  42: 34.08  43:208.84  44: 83.42  45:498.97  46: 53.10  47: 48.21  48: 22.07
  49: 40.21  50:172.90  51: 97.09  52: 66.82  53: 21.55  54: 15.31
 Raman intensities (amu)
   1:  0.00   2:  0.00   3:  0.00   4:  0.00   5:  0.00   6:  0.00   7:  0.00   8:  0.00
   9:  0.00  10:  0.00  11:  0.00  12:  0.00  13:  0.00  14:  0.00  15:  0.00  16:  0.00
  17:  0.00  18:  0.00  19:  0.00  20:  0.00  21:  0.00  22:  0.00  23:  0.00  24:  0.00
  25:  0.00  26:  0.00  27:  0.00  28:  0.00  29:  0.00  30:  0.00  31:  0.00  32:  0.00
  33:  0.00  34:  0.00  35:  0.00  36:  0.00  37:  0.00  38:  0.00  39:  0.00  40:  0.00
  41:  0.00  42:  0.00  43:  0.00  44:  0.00  45:  0.00  46:  0.00  47:  0.00  48:  0.00
  49:  0.00  50:  0.00  51:  0.00  52:  0.00  53:  0.00  54:  0.00
 output can be read by thermo (or use thermo option).
 writing <g98.out> molden fake output.
 recommended (thermochemical) frequency scaling factor: 1.0
           -------------------------------------------------
          |             Thermodynamic Functions             |
           -------------------------------------------------

Molecule has no symmetry elements
It seems to be the C1 point group
c1  symmetry found (for desy threshold:  0.10E+00) used in thermo

          ...................................................
          :                      SETUP                      :
          :.................................................:
          :  # frequencies                          48      :
          :  # imaginary freq.                       0      :
          :  linear?                             false      :
          :  only rotor calc.                    false      :
          :  symmetry                               c1      :
          :  rotational number                       1      :
          :  scaling factor                  1.0000000      :
          :  rotor cutoff                   50.0000000 cm⁻¹ :
          :  imag. cutoff                  -20.0000000 cm⁻¹ :
          :.................................................:

    mode    ω/cm⁻¹     T·S(HO)/kcal·mol⁻¹    T·S(FR)/kcal·mol⁻¹   T·S(vib)
   ------------------------------------------------------------------------
       1     91.99    -1.07851 ( 91.97%)    -0.87581 (  8.03%)    -1.06224
       2    189.83    -0.66471 ( 99.52%)    -0.66126 (  0.48%)    -0.66470
       3    209.73    -0.61001 ( 99.68%)    -0.63173 (  0.32%)    -0.61008
       4    218.28    -0.58833 ( 99.73%)    -0.61990 (  0.27%)    -0.58842
       5    259.37    -0.49673 ( 99.86%)    -0.56882 (  0.14%)    -0.49683
   ------------------------------------------------------------------------

   temp. (K)  partition function   enthalpy   heat capacity  entropy
                                   cal/mol     cal/K/mol   cal/K/mol   J/K/mol
 298.15  VIB   49.8                 3605.794     27.574     19.806
         ROT  0.474E+06              888.752      2.981     28.952
         INT  0.236E+08             4494.546     30.555     48.759
         TR   0.132E+28             1481.254      4.968     40.320
         TOT                        5975.8003    35.5228    89.0794   372.7082

       T/K    H(0)-H(T)+PV         H(T)/Eh          T*S/Eh         G(T)/Eh
   ------------------------------------------------------------------------
    298.15    0.952304E-02    0.153857E+00    0.423245E-01    0.111532E+00
   ------------------------------------------------------------------------

         :::::::::::::::::::::::::::::::::::::::::::::::::::::
         ::                  THERMODYNAMIC                  ::
         :::::::::::::::::::::::::::::::::::::::::::::::::::::
         :: total free energy         -26.445867026596 Eh   ::
         ::.................................................::
         :: total energy              -26.557399205678 Eh   ::
         :: zero point energy           0.144333634642 Eh   ::
         :: G(RRHO) w/o ZPVE           -0.032801455560 Eh   ::
         :: G(RRHO) contrib.            0.111532179082 Eh   ::
         :::::::::::::::::::::::::::::::::::::::::::::::::::::

optimized geometry written to: xtbopt.xyz


           -------------------------------------------------
          | TOTAL ENERGY              -26.557399205678 Eh   |
          | TOTAL ENTHALPY            -26.403542527149 Eh   |
          | TOTAL FREE ENERGY         -26.445867026596 Eh   |
          | GRADIENT NORM               0.000395291005 Eh/α |
          | HOMO-LUMO GAP               3.933183919650 eV   |
           -------------------------------------------------

------------------------------------------------------------------------
 * finished run on 2021/11/15 at 09:36:18.704     
------------------------------------------------------------------------
 total:
 * wall-time:     0 d,  0 h,  0 min,  1.015 sec
 *  cpu-time:     0 d,  0 h,  0 min,  0.984 sec
 * ratio c/w:     0.970 speedup
 SCF:
 * wall-time:     0 d,  0 h,  0 min,  0.011 sec
 *  cpu-time:     0 d,  0 h,  0 min,  0.000 sec
 * ratio c/w:     0.000 speedup
 ANC optimizer:
 * wall-time:     0 d,  0 h,  0 min,  0.092 sec
 *  cpu-time:     0 d,  0 h,  0 min,  0.078 sec
 * ratio c/w:     0.846 speedup
 analytical hessian:
 * wall-time:     0 d,  0 h,  0 min,  0.871 sec
 *  cpu-time:     0 d,  0 h,  0 min,  0.875 sec
 * ratio c/w:     1.005 speedup

