 Entering Gaussian System
 *********************************************
 Gaussian 98:
 frequency output generated by the xtb code
 *********************************************
                         Standard orientation:
 --------------------------------------------------------------------
  Center     Atomic     Atomic              Coordinates (Angstroms)
  Number     Number      Type              X           Y           Z
 --------------------------------------------------------------------
    1          6             0        0.260305    1.641388   -0.001580
    2          6             0        0.822479    0.364093    0.003518
    3          6             0        0.004365   -0.752976    0.016536
    4          6             0       -1.387002   -0.609869    0.019491
    5          6             0       -1.938426    0.672202    0.014715
    6          6             0       -1.113410    1.780241    0.003335
    7          1             0        0.917430    2.495951   -0.008690
    8          1             0        0.419112   -1.748804    0.019930
    9          1             0       -3.011403    0.790895    0.017465
   10          1             0       -1.546781    2.769338    0.001084
   11          7             0       -2.193042   -1.721582   -0.041561
   12          1             0       -1.780992   -2.594510    0.241660
   13          1             0       -3.153265   -1.590920    0.228091
   14          8             0        2.192609    0.323388    0.000664
   15          6             0        2.833227   -0.936342   -0.003748
   16          1             0        3.898584   -0.716147   -0.013730
   17          1             0        2.585853   -1.509346    0.894306
   18          1             0        2.568786   -1.511642   -0.895351
 --------------------------------------------------------------------
     1 basis functions        1 primitive gaussians
     1 alpha electrons        1 beta electrons
 
 Harmonic frequencies (cm**-1), IR intensities (km*mol⁻¹),
 Raman scattering activities (A**4/amu), Raman depolarization ratios,
 reduced masses (AMU), force constants (mDyne/A) and normal coordinates:
                      1                      2                      3
                        a                      a                      a 
 Frequencies --    91.9879               189.8331               209.7324
 Red. masses --     9.9705                 7.5745                 9.6082
 Frc consts  --     0.0000                 0.0000                 0.0000
 IR Inten    --     5.6092                 0.6151                 0.8373
 Raman Activ --     0.0000                 0.0000                 0.0000
 Depolar     --     0.0000                 0.0000                 0.0000
 Atom AN      X      Y      Z        X      Y      Z        X      Y      Z
   1   6    -0.00  -0.00  -0.05    -0.00   0.01   0.03    -0.04   0.19   0.04
   2   6    -0.00  -0.00  -0.24     0.00   0.01   0.16     0.04   0.23  -0.01
   3   6     0.00  -0.00  -0.25     0.01   0.01   0.49     0.09   0.20  -0.04
   4   6     0.00  -0.00  -0.03     0.00   0.00   0.11     0.10   0.04  -0.02
   5   6     0.00  -0.00   0.25    -0.00  -0.00  -0.02    -0.01  -0.02  -0.04
   6   6    -0.00  -0.00   0.22    -0.00   0.00   0.04    -0.07   0.04   0.00
   7   1    -0.00  -0.00  -0.02    -0.00   0.00  -0.05    -0.04   0.08   0.02
   8   1    -0.00  -0.00  -0.13     0.00   0.00   0.21     0.03   0.06  -0.02
   9   1     0.00  -0.00   0.14    -0.00  -0.00  -0.07    -0.00  -0.02  -0.01
  10   1     0.00   0.00   0.12    -0.00   0.00  -0.01    -0.04   0.00   0.00
  11   7    -0.01   0.01  -0.07     0.05  -0.00  -0.34     0.42  -0.18   0.04
  12   1     0.01  -0.01  -0.08    -0.02  -0.01  -0.06     0.19  -0.01   0.01
  13   1     0.01  -0.01   0.03    -0.02  -0.01  -0.20     0.10  -0.13   0.02
  14   8    -0.00   0.00  -0.47    -0.00  -0.00  -0.36     0.03  -0.05  -0.00
  15   6     0.01   0.00   0.52    -0.03  -0.02   0.01    -0.51  -0.33   0.01
  16   1     0.00   0.00   0.24    -0.01  -0.02  -0.33    -0.12  -0.24   0.02
  17   1    -0.10   0.14   0.21     0.23   0.19   0.19    -0.23  -0.07  -0.00
  18   1     0.11  -0.14   0.21    -0.25  -0.20   0.20    -0.21  -0.05  -0.01
                      4                      5                      6
                        a                      a                      a 
 Frequencies --   218.2842               259.3667               367.2982
 Red. masses --     9.9853                 5.5567                 7.2016
 Frc consts  --     0.0000                 0.0000                 0.0000
 IR Inten    --     3.9925                 1.0609                13.0733
 Raman Activ --     0.0000                 0.0000                 0.0000
 Depolar     --     0.0000                 0.0000                 0.0000
 Atom AN      X      Y      Z        X      Y      Z        X      Y      Z
   1   6    -0.01   0.01  -0.53    -0.00  -0.00   0.12    -0.01  -0.02   0.03
   2   6     0.00   0.02  -0.05    -0.00  -0.00   0.12    -0.04  -0.05   0.03
   3   6     0.01   0.01   0.15    -0.00  -0.00   0.38    -0.23   0.14   0.05
   4   6     0.01   0.00   0.16    -0.00   0.00   0.14    -0.22   0.19   0.02
   5   6     0.00  -0.00   0.49    -0.00   0.00  -0.11    -0.23   0.20  -0.03
   6   6    -0.01  -0.00  -0.04    -0.00  -0.00  -0.01    -0.02   0.09  -0.03
   7   1    -0.01   0.00  -0.29     0.00  -0.00   0.01    -0.00  -0.01   0.01
   8   1     0.00   0.00   0.06    -0.00  -0.00   0.11    -0.09   0.03   0.01
   9   1     0.00  -0.00   0.25    -0.00   0.00  -0.12    -0.06   0.09  -0.03
  10   1    -0.00  -0.00  -0.03     0.00  -0.00  -0.04     0.03   0.04  -0.03
  11   7     0.04   0.01  -0.33     0.02   0.00  -0.11     0.25  -0.14  -0.01
  12   1     0.01  -0.03  -0.18    -0.03   0.00   0.03     0.33  -0.02  -0.31
  13   1     0.00  -0.03  -0.09    -0.03   0.01  -0.14     0.12  -0.30   0.29
  14   8     0.00  -0.00   0.28    -0.00  -0.00  -0.37    -0.04  -0.25  -0.02
  15   6    -0.04  -0.02  -0.03     0.00   0.00  -0.05     0.32  -0.07  -0.00
  16   1    -0.01  -0.02   0.08     0.01   0.00   0.46     0.07   0.09   0.01
  17   1    -0.07  -0.09  -0.08    -0.36  -0.14  -0.21     0.14  -0.04  -0.00
  18   1     0.03   0.08  -0.08     0.36   0.14  -0.21     0.16  -0.05  -0.00
                      7                      8                      9
                        a                      a                      a 
 Frequencies --   387.4911               424.1654               444.5225
 Red. masses --     4.5612                 8.8551                10.8574
 Frc consts  --     0.0000                 0.0000                 0.0000
 IR Inten    --     8.2720                 9.5519                 5.7921
 Raman Activ --     0.0000                 0.0000                 0.0000
 Depolar     --     0.0000                 0.0000                 0.0000
 Atom AN      X      Y      Z        X      Y      Z        X      Y      Z
   1   6     0.03  -0.01   0.10    -0.04   0.01   0.30     0.22  -0.10   0.03
   2   6     0.02   0.01   0.11     0.01   0.02   0.27    -0.19  -0.24   0.03
   3   6     0.11  -0.10   0.05    -0.00   0.03  -0.27    -0.11  -0.24  -0.03
   4   6     0.12  -0.11   0.07    -0.01   0.02   0.29    -0.07   0.01   0.03
   5   6     0.14  -0.10  -0.02    -0.05   0.00   0.31     0.24   0.16   0.04
   6   6     0.03  -0.05  -0.15    -0.05  -0.01  -0.50     0.32   0.15  -0.05
   7   1     0.01  -0.01   0.02    -0.02   0.01   0.07     0.17  -0.11   0.01
   8   1     0.05  -0.02  -0.02    -0.01   0.01  -0.29    -0.06  -0.08  -0.04
   9   1     0.04  -0.05  -0.04    -0.02  -0.00   0.07     0.07   0.11   0.01
  10   1    -0.01  -0.02  -0.12    -0.01  -0.00  -0.37     0.12   0.05  -0.04
  11   7    -0.25   0.17  -0.02     0.06   0.03  -0.05     0.19  -0.21  -0.03
  12   1     0.03  -0.10  -0.60    -0.05  -0.01   0.01     0.14   0.01   0.07
  13   1     0.08  -0.02   0.53    -0.04   0.01  -0.23     0.03  -0.15  -0.04
  14   8     0.02   0.16  -0.06     0.03  -0.05  -0.10    -0.35   0.17  -0.01
  15   6    -0.19   0.06  -0.00     0.06  -0.04  -0.01    -0.27   0.27   0.00
  16   1    -0.04  -0.05   0.01     0.01   0.00  -0.03    -0.08   0.08  -0.00
  17   1    -0.10   0.04   0.00     0.03   0.01   0.02    -0.08   0.08   0.00
  18   1    -0.08   0.03  -0.00     0.01  -0.04   0.02    -0.08   0.07   0.00
                     10                     11                     12
                        a                      a                      a 
 Frequencies --   488.1743               511.9940               534.1330
 Red. masses --     7.5205                 8.1954                11.6775
 Frc consts  --     0.0000                 0.0000                 0.0000
 IR Inten    --   351.3056               164.8016                30.2605
 Raman Activ --     0.0000                 0.0000                 0.0000
 Depolar     --     0.0000                 0.0000                 0.0000
 Atom AN      X      Y      Z        X      Y      Z        X      Y      Z
   1   6     0.14   0.23   0.03     0.21   0.37  -0.02    -0.16   0.19   0.00
   2   6     0.01   0.17   0.09    -0.10   0.23  -0.05    -0.28   0.07   0.01
   3   6    -0.08   0.17   0.02    -0.10   0.19  -0.02     0.18  -0.17   0.01
   4   6    -0.11  -0.14  -0.02    -0.16  -0.27   0.04     0.31  -0.02  -0.01
   5   6     0.11  -0.06   0.10     0.20  -0.09  -0.06     0.26  -0.04   0.00
   6   6     0.12  -0.02  -0.07     0.18  -0.02   0.04    -0.15   0.25  -0.01
   7   1     0.02   0.08  -0.01     0.05   0.11   0.00    -0.01   0.02   0.00
   8   1     0.03   0.07  -0.02     0.07   0.09   0.01     0.13  -0.01   0.01
   9   1     0.04   0.03   0.03     0.06   0.05  -0.02     0.06  -0.11   0.00
  10   1    -0.01  -0.02  -0.05    -0.03  -0.04   0.02    -0.11   0.04  -0.00
  11   7    -0.28  -0.34  -0.33    -0.16  -0.20   0.23     0.13   0.16  -0.05
  12   1    -0.02   0.09   0.45    -0.10  -0.20  -0.35    -0.01   0.04   0.05
  13   1     0.08   0.03   0.47    -0.15  -0.12  -0.35     0.08   0.12   0.10
  14   8     0.01  -0.04  -0.04    -0.12  -0.12   0.02    -0.45  -0.35  -0.00
  15   6     0.05  -0.03  -0.00     0.06  -0.02   0.00     0.10  -0.09  -0.00
  16   1     0.01   0.02   0.01     0.00   0.07  -0.00    -0.01   0.17   0.00
  17   1     0.02  -0.01  -0.00     0.06  -0.02   0.00     0.14  -0.07   0.00
  18   1     0.03  -0.01  -0.00     0.06  -0.02  -0.00     0.14  -0.07  -0.00
                     13                     14                     15
                        a                      a                      a 
 Frequencies --   585.4593               651.9008               727.7133
 Red. masses --    11.4687                10.1183                11.6602
 Frc consts  --     0.0000                 0.0000                 0.0000
 IR Inten    --     5.6909                 9.4116                26.0695
 Raman Activ --     0.0000                 0.0000                 0.0000
 Depolar     --     0.0000                 0.0000                 0.0000
 Atom AN      X      Y      Z        X      Y      Z        X      Y      Z
   1   6     0.00   0.00  -0.15    -0.01  -0.00  -0.32     0.24  -0.02  -0.00
   2   6    -0.00   0.00   0.66     0.00   0.00   0.42     0.02   0.05   0.01
   3   6    -0.00  -0.00  -0.02     0.00  -0.01  -0.30    -0.03   0.24  -0.00
   4   6    -0.01  -0.01  -0.62     0.01   0.01   0.46     0.07   0.12   0.00
   5   6    -0.00   0.00   0.13     0.00   0.00  -0.32    -0.22  -0.17  -0.00
   6   6     0.00  -0.00   0.02    -0.00   0.01   0.36     0.23  -0.59   0.01
   7   1     0.00  -0.00  -0.19    -0.00  -0.00  -0.22    -0.01   0.05  -0.00
   8   1     0.00   0.00   0.01    -0.00  -0.00  -0.25    -0.01   0.07  -0.00
   9   1     0.00   0.00   0.17    -0.00  -0.00  -0.24    -0.05   0.00  -0.00
  10   1     0.00  -0.00   0.00    -0.00   0.00  -0.01     0.08  -0.16   0.00
  11   7     0.01   0.00   0.20    -0.00  -0.01  -0.08     0.17   0.29  -0.02
  12   1     0.02  -0.01  -0.02    -0.01   0.01   0.02     0.01   0.07   0.03
  13   1    -0.01   0.01  -0.02     0.01  -0.01   0.03     0.07   0.14   0.05
  14   8    -0.00  -0.00  -0.17     0.00   0.00  -0.04    -0.35  -0.14  -0.00
  15   6     0.00   0.00  -0.02     0.00  -0.00  -0.00    -0.11   0.12   0.00
  16   1     0.00   0.00   0.02     0.00  -0.00  -0.01    -0.06   0.16   0.00
  17   1    -0.02   0.01  -0.00     0.00   0.01   0.01     0.04   0.00   0.00
  18   1     0.03  -0.01  -0.01    -0.00  -0.01   0.01     0.04   0.00  -0.00
                     16                     17                     18
                        a                      a                      a 
 Frequencies --   773.5717               831.5540               851.4407
 Red. masses --     3.9504                 3.3656                 3.8755
 Frc consts  --     0.0000                 0.0000                 0.0000
 IR Inten    --    69.7193                 0.4836                 0.1260
 Raman Activ --     0.0000                 0.0000                 0.0000
 Depolar     --     0.0000                 0.0000                 0.0000
 Atom AN      X      Y      Z        X      Y      Z        X      Y      Z
   1   6     0.00   0.00   0.16     0.00  -0.01   0.18     0.00   0.00  -0.35
   2   6    -0.00   0.00  -0.21     0.00  -0.00  -0.02    -0.00   0.00   0.09
   3   6     0.00   0.00   0.25    -0.00   0.00  -0.38    -0.00  -0.00  -0.02
   4   6     0.00  -0.00  -0.23     0.00   0.00   0.02    -0.00  -0.00  -0.08
   5   6    -0.00   0.00   0.20    -0.00   0.00   0.15    -0.00   0.00   0.35
   6   6     0.00  -0.00   0.17     0.00   0.00   0.11     0.00   0.00  -0.02
   7   1    -0.00  -0.00  -0.44    -0.00  -0.00  -0.30     0.00   0.00   0.62
   8   1    -0.01  -0.00  -0.45     0.01   0.01   0.73     0.00  -0.00   0.04
   9   1    -0.00  -0.01  -0.49    -0.00  -0.00  -0.28    -0.00  -0.01  -0.60
  10   1    -0.00  -0.00  -0.31     0.00   0.00  -0.27     0.00   0.00   0.02
  11   7    -0.00  -0.00   0.07     0.00  -0.00  -0.01    -0.00  -0.00   0.02
  12   1     0.01   0.00   0.01    -0.00  -0.00   0.00     0.00  -0.00  -0.00
  13   1    -0.00   0.01  -0.00     0.00   0.00  -0.00    -0.00   0.00  -0.00
  14   8    -0.00  -0.00   0.06    -0.00  -0.00  -0.01     0.00  -0.00  -0.02
  15   6    -0.00   0.00   0.01    -0.00   0.00   0.00    -0.00  -0.00  -0.00
  16   1    -0.00   0.00  -0.02    -0.00   0.00   0.03     0.00  -0.00   0.00
  17   1     0.01   0.00   0.01    -0.00  -0.01  -0.01    -0.00   0.00   0.00
  18   1    -0.01  -0.00   0.01     0.00   0.01  -0.01     0.00  -0.00   0.00
                     19                     20                     21
                        a                      a                      a 
 Frequencies --   916.2732               953.7517               988.0551
 Red. masses --     3.1293                 9.4574                10.5783
 Frc consts  --     0.0000                 0.0000                 0.0000
 IR Inten    --     0.0132                66.2584                 3.2063
 Raman Activ --     0.0000                 0.0000                 0.0000
 Depolar     --     0.0000                 0.0000                 0.0000
 Atom AN      X      Y      Z        X      Y      Z        X      Y      Z
   1   6     0.00   0.00   0.14     0.11   0.40  -0.00     0.21   0.30  -0.00
   2   6    -0.00   0.00   0.06    -0.32  -0.03   0.00    -0.00   0.05  -0.00
   3   6    -0.00  -0.00  -0.06    -0.16  -0.37  -0.00     0.36  -0.41   0.00
   4   6    -0.00   0.00   0.07    -0.10   0.05   0.00     0.08   0.03   0.00
   5   6     0.00   0.00   0.13     0.03  -0.14   0.00    -0.58   0.21  -0.00
   6   6    -0.00  -0.00  -0.38     0.03  -0.20   0.00     0.04   0.02  -0.00
   7   1    -0.00  -0.00  -0.33     0.02   0.11  -0.00     0.05   0.09  -0.00
   8   1     0.00  -0.00  -0.01    -0.11  -0.13   0.01     0.14  -0.09   0.00
   9   1    -0.00  -0.01  -0.31     0.01  -0.03   0.00    -0.15   0.12   0.00
  10   1     0.00   0.00   0.78    -0.19  -0.14  -0.00     0.12   0.06   0.00
  11   7    -0.00   0.00  -0.00     0.07   0.27  -0.02    -0.06  -0.19  -0.00
  12   1    -0.00  -0.00  -0.01     0.22   0.19   0.07    -0.14  -0.12  -0.03
  13   1     0.00  -0.01   0.00    -0.01  -0.13  -0.02     0.00   0.04   0.02
  14   8     0.00   0.00   0.00     0.13   0.22  -0.00    -0.02  -0.04   0.00
  15   6     0.00  -0.00   0.00     0.21  -0.17  -0.00    -0.04   0.01   0.00
  16   1     0.00  -0.00  -0.00     0.09  -0.22  -0.00    -0.02   0.04   0.00
  17   1     0.00  -0.00  -0.00    -0.06   0.01  -0.00     0.02  -0.00   0.00
  18   1    -0.00   0.00  -0.00    -0.06   0.01   0.00     0.02  -0.00  -0.00
                     22                     23                     24
                        a                      a                      a 
 Frequencies --  1023.9573              1057.8343              1116.2245
 Red. masses --     5.7337                10.8011                 3.7013
 Frc consts  --     0.0000                 0.0000                 0.0000
 IR Inten    --    16.6089               109.1448                 3.0100
 Raman Activ --     0.0000                 0.0000                 0.0000
 Depolar     --     0.0000                 0.0000                 0.0000
 Atom AN      X      Y      Z        X      Y      Z        X      Y      Z
   1   6     0.03  -0.01   0.00    -0.10  -0.21   0.00    -0.00  -0.00  -0.00
   2   6    -0.19  -0.02   0.00    -0.06   0.11   0.00    -0.00   0.00  -0.00
   3   6    -0.23   0.09   0.01     0.21   0.08  -0.00     0.00  -0.00   0.00
   4   6     0.04  -0.07  -0.00     0.04   0.02   0.00    -0.00   0.00  -0.00
   5   6    -0.05   0.02  -0.01    -0.02   0.07   0.00     0.00   0.00  -0.00
   6   6     0.02   0.03  -0.00     0.12  -0.10   0.00     0.00  -0.00   0.00
   7   1     0.13  -0.09  -0.00    -0.02  -0.07   0.00    -0.00   0.00   0.00
   8   1    -0.15  -0.01   0.00     0.27   0.12  -0.01     0.00   0.00  -0.02
   9   1    -0.01   0.07  -0.00     0.00   0.09  -0.00     0.00   0.00  -0.00
  10   1     0.02   0.02   0.00     0.22   0.05  -0.00     0.00  -0.00  -0.00
  11   7     0.31  -0.13  -0.00    -0.16  -0.01   0.01     0.00  -0.00   0.00
  12   1    -0.38  -0.28  -0.10     0.12   0.08   0.03    -0.00  -0.00   0.00
  13   1     0.18   0.50   0.12    -0.08  -0.19  -0.05     0.00   0.00   0.00
  14   8    -0.08   0.25   0.00    -0.34   0.46   0.00    -0.00   0.00  -0.22
  15   6     0.21  -0.21  -0.00     0.21  -0.46  -0.00     0.00  -0.00   0.42
  16   1     0.07  -0.18  -0.00     0.03  -0.06  -0.00    -0.00   0.00  -0.22
  17   1    -0.05  -0.00  -0.00     0.04  -0.06   0.02     0.24  -0.52  -0.17
  18   1    -0.05  -0.00   0.00     0.04  -0.06  -0.02    -0.24   0.52  -0.17
                     25                     26                     27
                        a                      a                      a 
 Frequencies --  1120.0570              1151.3777              1166.7451
 Red. masses --     3.4857                 4.9296                 5.3616
 Frc consts  --     0.0000                 0.0000                 0.0000
 IR Inten    --     1.3629                 9.4045               300.6421
 Raman Activ --     0.0000                 0.0000                 0.0000
 Depolar     --     0.0000                 0.0000                 0.0000
 Atom AN      X      Y      Z        X      Y      Z        X      Y      Z
   1   6    -0.24  -0.02   0.00    -0.05  -0.02   0.00    -0.12  -0.11   0.00
   2   6     0.06   0.02  -0.00    -0.04  -0.02   0.00    -0.36   0.09   0.00
   3   6     0.00  -0.17   0.00     0.07   0.07   0.00     0.02  -0.00   0.00
   4   6    -0.04   0.03   0.00     0.04  -0.00   0.00    -0.08  -0.12   0.00
   5   6     0.22   0.18  -0.00    -0.01   0.01  -0.00     0.00   0.07   0.00
   6   6     0.10  -0.18   0.00     0.04   0.01  -0.00    -0.02  -0.13   0.00
   7   1    -0.58   0.38   0.00    -0.15   0.10   0.00     0.21  -0.23   0.00
   8   1    -0.11  -0.09   0.00     0.14   0.07  -0.00     0.48   0.21  -0.01
   9   1     0.11   0.48  -0.01    -0.01  -0.05   0.00     0.06   0.48  -0.01
  10   1     0.05  -0.05   0.00     0.19   0.08  -0.00    -0.10  -0.08   0.00
  11   7     0.06  -0.06   0.00    -0.04  -0.01   0.00     0.08   0.09  -0.01
  12   1    -0.07  -0.06  -0.02     0.01   0.01   0.00     0.05   0.05   0.02
  13   1     0.04   0.09   0.02    -0.02  -0.04  -0.01     0.03   0.08   0.02
  14   8     0.00  -0.00   0.00    -0.20  -0.28   0.00     0.29  -0.14  -0.00
  15   6    -0.03  -0.01  -0.00     0.30   0.30  -0.00    -0.08   0.13  -0.00
  16   1    -0.02   0.06   0.00     0.20  -0.55  -0.00     0.00  -0.05   0.00
  17   1     0.02  -0.01   0.00    -0.30   0.16  -0.04     0.03   0.01   0.01
  18   1     0.03  -0.02  -0.00    -0.30   0.16   0.04     0.03   0.00  -0.01
                     28                     29                     30
                        a                      a                      a 
 Frequencies --  1187.6077              1271.2043              1311.5599
 Red. masses --     4.5275                 3.9664                 9.1059
 Frc consts  --     0.0000                 0.0000                 0.0000
 IR Inten    --   136.0448                22.5435               149.1703
 Raman Activ --     0.0000                 0.0000                 0.0000
 Depolar     --     0.0000                 0.0000                 0.0000
 Atom AN      X      Y      Z        X      Y      Z        X      Y      Z
   1   6     0.00   0.03  -0.00     0.22  -0.07  -0.00    -0.03  -0.16   0.00
   2   6     0.30  -0.09   0.00     0.13  -0.29   0.00    -0.32   0.21   0.00
   3   6     0.24   0.08  -0.00    -0.12  -0.03   0.00    -0.01  -0.01   0.00
   4   6     0.03   0.12  -0.00    -0.17   0.04   0.00     0.26   0.41  -0.01
   5   6     0.01   0.02   0.00    -0.03   0.13  -0.00     0.13   0.34  -0.00
   6   6    -0.08  -0.01  -0.00     0.05   0.13  -0.00     0.10  -0.26   0.00
   7   1     0.22  -0.15  -0.00    -0.26   0.23  -0.00    -0.01  -0.05   0.00
   8   1    -0.19  -0.08   0.00     0.52   0.22  -0.01    -0.06  -0.01   0.00
   9   1     0.05   0.39  -0.01    -0.04  -0.26   0.00    -0.00  -0.31   0.01
  10   1    -0.59  -0.25   0.00    -0.42  -0.15   0.00    -0.19  -0.18   0.00
  11   7    -0.09  -0.08   0.01     0.08  -0.01  -0.00    -0.12  -0.23   0.01
  12   1    -0.02  -0.02  -0.01    -0.04  -0.03  -0.01    -0.21  -0.15  -0.00
  13   1    -0.03  -0.07  -0.01     0.04   0.11   0.02    -0.05  -0.19   0.01
  14   8    -0.27  -0.00   0.00    -0.07   0.10   0.00     0.13  -0.05  -0.00
  15   6     0.12  -0.01  -0.00    -0.03  -0.05   0.00    -0.02   0.06   0.00
  16   1     0.04  -0.09  -0.00    -0.01  -0.02  -0.00     0.02  -0.06  -0.00
  17   1    -0.09   0.04  -0.01     0.03   0.01   0.02     0.03  -0.03  -0.01
  18   1    -0.09   0.04   0.01     0.03   0.01  -0.02     0.04  -0.03   0.01
                     31                     32                     33
                        a                      a                      a 
 Frequencies --  1345.5350              1388.2963              1449.6281
 Red. masses --    11.5828                 2.5643                 6.3217
 Frc consts  --     0.0000                 0.0000                 0.0000
 IR Inten    --     9.7612                 0.3979                11.2179
 Raman Activ --     0.0000                 0.0000                 0.0000
 Depolar     --     0.0000                 0.0000                 0.0000
 Atom AN      X      Y      Z        X      Y      Z        X      Y      Z
   1   6     0.38  -0.23  -0.00     0.05  -0.01  -0.00    -0.18  -0.02   0.00
   2   6     0.13   0.34  -0.00     0.03  -0.04   0.00     0.17   0.31  -0.00
   3   6    -0.34  -0.14  -0.00     0.01   0.04  -0.00     0.13  -0.19  -0.00
   4   6     0.31  -0.36   0.00     0.03  -0.05   0.00    -0.36  -0.04   0.03
   5   6    -0.02   0.32   0.00    -0.03  -0.04   0.00     0.10   0.25  -0.00
   6   6    -0.36  -0.05   0.00    -0.02   0.05  -0.00     0.10  -0.14  -0.00
   7   1    -0.03   0.05   0.00    -0.03   0.03  -0.00     0.10  -0.13   0.00
   8   1    -0.03  -0.02  -0.00    -0.07  -0.02   0.00    -0.02  -0.08   0.00
   9   1    -0.01   0.08   0.00    -0.00   0.05  -0.00    -0.01  -0.26   0.00
  10   1    -0.05   0.01   0.00    -0.01   0.01   0.00    -0.03  -0.07   0.00
  11   7    -0.02   0.07  -0.00    -0.01   0.01   0.00    -0.02  -0.13   0.02
  12   1     0.12   0.08   0.03     0.02   0.02   0.00     0.35   0.12  -0.10
  13   1    -0.01  -0.04  -0.03    -0.00  -0.00  -0.01     0.05   0.48  -0.07
  14   8    -0.09   0.00  -0.00    -0.09   0.10   0.00    -0.07  -0.04   0.00
  15   6     0.04  -0.01   0.00    -0.18   0.26   0.00     0.04   0.05  -0.00
  16   1     0.01  -0.01  -0.00     0.10  -0.54  -0.00     0.01  -0.01   0.00
  17   1    -0.03   0.02   0.00     0.36  -0.36  -0.14    -0.04  -0.09  -0.07
  18   1    -0.03   0.02  -0.00     0.36  -0.36   0.13    -0.04  -0.09   0.07
                     34                     35                     36
                        a                      a                      a 
 Frequencies --  1461.9276              1465.0697              1473.6540
 Red. masses --     1.5539                 8.0664                 1.9414
 Frc consts  --     0.0000                 0.0000                 0.0000
 IR Inten    --     5.6054                72.9514                34.0824
 Raman Activ --     0.0000                 0.0000                 0.0000
 Depolar     --     0.0000                 0.0000                 0.0000
 Atom AN      X      Y      Z        X      Y      Z        X      Y      Z
   1   6     0.00  -0.01  -0.00    -0.12   0.22  -0.00    -0.00  -0.01  -0.00
   2   6    -0.01  -0.00  -0.00     0.41   0.05  -0.00     0.04   0.03   0.00
   3   6     0.00   0.01   0.00    -0.20  -0.24   0.00    -0.02  -0.05   0.00
   4   6     0.01  -0.01   0.00    -0.19   0.21  -0.02    -0.09  -0.04  -0.02
   5   6    -0.01  -0.00  -0.00     0.23   0.05  -0.00     0.01  -0.00   0.00
   6   6     0.01   0.01   0.00    -0.27  -0.24   0.00    -0.00   0.01   0.00
   7   1    -0.01   0.00   0.00     0.21  -0.12  -0.00     0.01  -0.01  -0.00
   8   1    -0.00  -0.00  -0.02     0.23   0.05  -0.01     0.08   0.03  -0.00
   9   1    -0.00   0.00  -0.00     0.07  -0.02  -0.00     0.00  -0.00  -0.00
  10   1    -0.01  -0.00   0.00     0.22   0.06  -0.00     0.00   0.00  -0.00
  11   7    -0.00   0.00   0.00     0.13   0.06  -0.01     0.10   0.12  -0.02
  12   1     0.00   0.00  -0.00    -0.29  -0.13   0.04    -0.21  -0.07   0.05
  13   1    -0.00   0.00  -0.00     0.01  -0.19   0.07     0.00  -0.20   0.06
  14   8     0.00   0.00  -0.03    -0.12  -0.00  -0.00     0.01   0.04   0.00
  15   6     0.00   0.00  -0.22    -0.05  -0.00  -0.01     0.16   0.11   0.00
  16   1     0.01   0.00   0.72     0.02  -0.11   0.02    -0.04   0.27  -0.01
  17   1     0.45  -0.06   0.08     0.10   0.06   0.07    -0.32  -0.40  -0.34
  18   1    -0.46   0.04   0.10     0.08   0.07  -0.06    -0.30  -0.40   0.35
                     37                     38                     39
                        a                      a                      a 
 Frequencies --  1496.4995              1581.9971              1601.7474
 Red. masses --     8.5720                11.5232                11.5274
 Frc consts  --     0.0000                 0.0000                 0.0000
 IR Inten    --   208.8418                83.4158               498.9739
 Raman Activ --     0.0000                 0.0000                 0.0000
 Depolar     --     0.0000                 0.0000                 0.0000
 Atom AN      X      Y      Z        X      Y      Z        X      Y      Z
   1   6    -0.06  -0.20   0.00     0.44  -0.30   0.00     0.18   0.10  -0.00
   2   6    -0.01   0.32  -0.00    -0.15   0.29  -0.00    -0.20  -0.35   0.00
   3   6     0.19  -0.05   0.00     0.21  -0.10  -0.00     0.40   0.27  -0.00
   4   6    -0.33  -0.34  -0.02    -0.33   0.38   0.00    -0.23  -0.22  -0.00
   5   6    -0.10   0.06   0.00     0.12  -0.37   0.00     0.18   0.39  -0.00
   6   6     0.28   0.14  -0.00    -0.30   0.11   0.00    -0.40  -0.25   0.00
   7   1    -0.06  -0.03  -0.00    -0.09   0.08   0.00     0.01   0.05  -0.00
   8   1    -0.13  -0.10   0.00    -0.01  -0.04   0.00    -0.13  -0.03   0.00
   9   1    -0.05  -0.12   0.00     0.05   0.10  -0.00     0.02  -0.10   0.00
  10   1    -0.15  -0.07  -0.00     0.03   0.08  -0.00     0.10   0.02  -0.00
  11   7     0.22   0.29  -0.04     0.02  -0.07   0.01     0.05   0.06  -0.02
  12   1    -0.30  -0.07   0.10    -0.03  -0.04  -0.03    -0.04  -0.00   0.03
  13   1     0.03  -0.29   0.11     0.01   0.07   0.00     0.01  -0.02   0.03
  14   8    -0.03  -0.05  -0.00    -0.01  -0.01   0.00     0.03   0.03  -0.00
  15   6    -0.03  -0.02   0.00     0.02  -0.00  -0.00    -0.01  -0.01  -0.00
  16   1     0.02  -0.10   0.00     0.01  -0.01  -0.00    -0.01   0.02  -0.00
  17   1     0.08   0.11   0.09    -0.01   0.01   0.00     0.00   0.00   0.01
  18   1     0.08   0.11  -0.09    -0.01   0.01  -0.00     0.00   0.00  -0.01
                     40                     41                     42
                        a                      a                      a 
 Frequencies --  2935.6438              2949.4549              3029.8049
 Red. masses --     1.9522                 1.4437                 1.6939
 Frc consts  --     0.0000                 0.0000                 0.0000
 IR Inten    --    53.0987                48.2140                22.0674
 Raman Activ --     0.0000                 0.0000                 0.0000
 Depolar     --     0.0000                 0.0000                 0.0000
 Atom AN      X      Y      Z        X      Y      Z        X      Y      Z
   1   6    -0.00   0.00  -0.00     0.00  -0.00  -0.00    -0.00  -0.00   0.00
   2   6     0.00  -0.00   0.00    -0.00   0.00   0.00    -0.00   0.00  -0.00
   3   6     0.00  -0.00   0.00    -0.00   0.00   0.00     0.00  -0.00   0.00
   4   6     0.00  -0.00  -0.00    -0.00   0.00  -0.00    -0.00  -0.00  -0.00
   5   6    -0.00  -0.00   0.00     0.00   0.00  -0.00     0.00  -0.00  -0.00
   6   6     0.00   0.00  -0.00    -0.00  -0.00  -0.00     0.00  -0.00   0.00
   7   1     0.00   0.00  -0.00    -0.00  -0.00   0.00     0.00   0.00  -0.00
   8   1    -0.00   0.00   0.00     0.01  -0.01   0.00    -0.00   0.01  -0.00
   9   1     0.00  -0.00   0.00    -0.00   0.00   0.00    -0.00   0.00   0.00
  10   1     0.00  -0.00   0.00    -0.00   0.00  -0.00    -0.00   0.00  -0.00
  11   7     0.00  -0.00   0.00     0.00   0.00   0.00     0.00   0.00   0.00
  12   1    -0.00   0.00  -0.00     0.00   0.00  -0.00    -0.00   0.00  -0.00
  13   1    -0.00   0.00   0.00     0.00  -0.00  -0.00    -0.00  -0.00  -0.00
  14   8    -0.00   0.00  -0.01     0.01  -0.02  -0.00     0.01  -0.01  -0.00
  15   6     0.00   0.01  -0.29    -0.10  -0.17  -0.02     0.24   0.05  -0.00
  16   1    -0.00   0.00  -0.05     0.01  -0.01  -0.00    -0.94  -0.20   0.01
  17   1    -0.18  -0.38   0.57     0.14   0.32  -0.56     0.04   0.02  -0.02
  18   1     0.17   0.35   0.50     0.17   0.36   0.61     0.04   0.02   0.01
                     43                     44                     45
                        a                      a                      a 
 Frequencies --  3071.6323              3084.0695              3095.8770
 Red. masses --     1.7648                 1.8568                 1.8169
 Frc consts  --     0.0000                 0.0000                 0.0000
 IR Inten    --    40.2122               172.9009                97.0912
 Raman Activ --     0.0000                 0.0000                 0.0000
 Depolar     --     0.0000                 0.0000                 0.0000
 Atom AN      X      Y      Z        X      Y      Z        X      Y      Z
   1   6    -0.02  -0.02   0.00    -0.04  -0.06   0.00     0.05   0.05  -0.00
   2   6    -0.00  -0.00   0.00    -0.00  -0.00   0.00    -0.01   0.00   0.00
   3   6     0.00  -0.01   0.00    -0.01   0.03  -0.00    -0.10   0.24  -0.00
   4   6     0.01   0.00  -0.00    -0.01  -0.01  -0.00     0.00   0.01  -0.00
   5   6     0.15  -0.02  -0.00    -0.22   0.03   0.00     0.02  -0.01  -0.00
   6   6    -0.08   0.19  -0.00    -0.06   0.14  -0.00    -0.00   0.01  -0.00
   7   1     0.08   0.10  -0.00     0.16   0.21  -0.00    -0.15  -0.20   0.00
   8   1    -0.01   0.03  -0.00     0.05  -0.11   0.00     0.36  -0.85   0.00
   9   1    -0.56   0.06   0.00     0.75  -0.09  -0.00    -0.08   0.01   0.00
  10   1     0.31  -0.70   0.00     0.21  -0.47   0.00     0.01  -0.02   0.00
  11   7    -0.00   0.00   0.00     0.00  -0.00   0.00     0.00  -0.00   0.00
  12   1     0.00  -0.00  -0.00    -0.00   0.00  -0.00    -0.00  -0.00  -0.00
  13   1     0.00  -0.00  -0.00    -0.00   0.00  -0.00    -0.00  -0.00   0.00
  14   8    -0.00   0.00   0.00    -0.00   0.00  -0.00    -0.00   0.00   0.00
  15   6    -0.00  -0.00   0.00     0.00  -0.00  -0.00     0.00   0.00  -0.00
  16   1    -0.00   0.00   0.00    -0.00  -0.00   0.00    -0.01  -0.00   0.00
  17   1     0.00   0.00  -0.00     0.00   0.00  -0.00    -0.00  -0.01   0.01
  18   1     0.00   0.00   0.00     0.00   0.00   0.00    -0.00  -0.01  -0.01
                     46                     47                     48
                        a                      a                      a 
 Frequencies --  3104.7538              3474.3243              3531.9570
 Red. masses --     1.8622                 1.4534                 2.1656
 Frc consts  --     0.0000                 0.0000                 0.0000
 IR Inten    --    66.8167                21.5511                15.3100
 Raman Activ --     0.0000                 0.0000                 0.0000
 Depolar     --     0.0000                 0.0000                 0.0000
 Atom AN      X      Y      Z        X      Y      Z        X      Y      Z
   1   6     0.15   0.20  -0.00    -0.00  -0.00   0.00    -0.00   0.00  -0.00
   2   6     0.01  -0.00  -0.00     0.00   0.00   0.00     0.00  -0.00   0.00
   3   6     0.02  -0.06   0.00    -0.00  -0.00  -0.00    -0.00   0.00  -0.00
   4   6    -0.00  -0.01  -0.00     0.00   0.00  -0.00     0.01  -0.00  -0.00
   5   6    -0.05   0.00   0.00    -0.00  -0.00  -0.00    -0.00  -0.00   0.00
   6   6    -0.03   0.08  -0.00     0.00   0.00   0.00     0.00   0.00  -0.00
   7   1    -0.53  -0.70   0.01    -0.00  -0.00  -0.00    -0.00   0.00   0.00
   8   1    -0.09   0.21  -0.00     0.00   0.00  -0.00    -0.00   0.00   0.00
   9   1     0.16  -0.02  -0.00     0.00   0.00  -0.00    -0.00   0.00  -0.00
  10   1     0.10  -0.24   0.00     0.00  -0.00  -0.00    -0.00  -0.00   0.00
  11   7     0.00   0.00   0.00     0.09   0.14  -0.09     0.24  -0.17  -0.00
  12   1     0.00   0.00  -0.00     0.31  -0.62   0.18    -0.26   0.57  -0.18
  13   1     0.00   0.00  -0.00    -0.65   0.10   0.16    -0.67   0.08   0.19
  14   8    -0.00   0.00   0.00    -0.00   0.00  -0.00     0.00   0.00  -0.00
  15   6     0.00  -0.00   0.00     0.00  -0.00  -0.00    -0.00  -0.00   0.00
  16   1    -0.00  -0.00   0.00    -0.00  -0.00   0.00     0.00   0.00  -0.00
  17   1     0.00   0.00  -0.00     0.00   0.00  -0.00     0.00   0.00  -0.00
  18   1     0.00   0.00   0.00     0.00   0.00   0.00    -0.00   0.00   0.00
