18
 energy: -26.557399206298 gnorm: 0.000395547755 xtb: 6.4.1 (afa7bdf)
C         0.26030501597388    1.64138778477013   -0.00158049181361
C         0.82247869909212    0.36409267827312    0.00351764756269
C         0.00436517025906   -0.75297628780581    0.01653625629687
C        -1.38700178973425   -0.60986856509689    0.01949149354093
C        -1.93842555806305    0.67220228404768    0.01471489350104
C        -1.11341047103220    1.78024093745390    0.00333493702526
H         0.91743030126163    2.49595112750046   -0.00869000695259
H         0.41911175715745   -1.74880362005319    0.01992992916187
H        -3.01140324081113    0.79089475346981    0.01746515039387
H        -1.54678149147974    2.76933840199626    0.00108368777301
N        -2.19304235792088   -1.72158243773117   -0.04156113963710
H        -1.78099150806709   -2.59450950682041    0.24165966534682
H        -3.15326476322661   -1.59092041467831    0.22809086099351
O         2.19260888937240    0.32338774882166    0.00066383167672
C         2.83322721278376   -0.93634194125729   -0.00374816207830
H         3.89858425676401   -0.71614680218027   -0.01372979662774
H         2.58585338711561   -1.50934561871387    0.89430555342611
H         2.56878627552978   -1.51164163757411   -0.89535064832171
