      -----------------------------------------------------------      
     |                   =====================                   |     
     |                           x T B                           |     
     |                   =====================                   |     
     |                         S. Grimme                         |     
     |          Mulliken Center for Theoretical Chemistry        |     
     |                    University of Bonn                     |     
      -----------------------------------------------------------      

   * xtb version 6.4.1 (afa7bdf) compiled by 'ehlert@majestix' on 2021-06-10

   xtb is free software: you can redistribute it and/or modify it under
   the terms of the GNU Lesser General Public License as published by
   the Free Software Foundation, either version 3 of the License, or
   (at your option) any later version.
   
   xtb is distributed in the hope that it will be useful,
   but WITHOUT ANY WARRANTY; without even the implied warranty of
   MERCHANTABILITY or FITNESS FOR A PARTICULAR PURPOSE.  See the
   GNU Lesser General Public License for more details.
   
   Cite this work as:
   * C. Bannwarth, E. Caldeweyher, S. Ehlert, A. Hansen, P. Pracht,
     J. Seibert, S. Spicher, S. Grimme, WIREs Comput. Mol. Sci., 2020, 11,
     e01493. DOI: 10.1002/wcms.1493
   
   for GFN2-xTB:
   * C. Bannwarth, S. Ehlert and S. Grimme., J. Chem. Theory Comput., 2019,
     15, 1652-1671. DOI: 10.1021/acs.jctc.8b01176
   for GFN1-xTB:
   * S. Grimme, C. Bannwarth, P. Shushkov, J. Chem. Theory Comput., 2017,
     13, 1989-2009. DOI: 10.1021/acs.jctc.7b00118
   for GFN0-xTB:
   * P. Pracht, E. Caldeweyher, S. Ehlert, S. Grimme, ChemRxiv, 2019, preprint.
     DOI: 10.26434/chemrxiv.8326202.v1
   for GFN-FF:
   * S. Spicher and S. Grimme, Angew. Chem. Int. Ed., 2020, 59, 15665-15673.
     DOI: 10.1002/anie.202004239
   
   for DFT-D4:
   * E. Caldeweyher, C. Bannwarth and S. Grimme, J. Chem. Phys., 2017,
     147, 034112. DOI: 10.1063/1.4993215
   * E. Caldeweyher, S. Ehlert, A. Hansen, H. Neugebauer, S. Spicher,
     C. Bannwarth and S. Grimme, J. Chem. Phys., 2019, 150, 154122.
     DOI: 10.1063/1.5090222
   * E. Caldeweyher, J.-M. Mewes, S. Ehlert and S. Grimme, Phys. Chem. Chem. Phys.
     2020, 22, 8499-8512. DOI: 10.1039/D0CP00502A
   
   for sTDA-xTB:
   * S. Grimme and C. Bannwarth, J. Chem. Phys., 2016, 145, 054103.
     DOI: 10.1063/1.4959605
   
   in the mass-spec context:
   * V. Asgeirsson, C. Bauer and S. Grimme, Chem. Sci., 2017, 8, 4879.
     DOI: 10.1039/c7sc00601b
   * J. Koopman and S. Grimme, ACS Omega 2019, 4, 12, 15120-15133.
     DOI: 10.1021/acsomega.9b02011
   
   for metadynamics refer to:
   * S. Grimme, J. Chem. Theory Comput., 2019, 155, 2847-2862
     DOI: 10.1021/acs.jctc.9b00143
   
   for SPH calculations refer to:
   * S. Spicher and S. Grimme, J. Chem. Theory Comput., 2021, 17, 1701-1714
     DOI: 10.1021/acs.jctc.0c01306
   
   with help from (in alphabetical order)
   P. Atkinson, C. Bannwarth, F. Bohle, G. Brandenburg, E. Caldeweyher
   M. Checinski, S. Dohm, S. Ehlert, S. Ehrlich, I. Gerasimov, J. Koopman
   C. Lavigne, S. Lehtola, F. März, M. Müller, F. Musil, H. Neugebauer
   J. Pisarek, C. Plett, P. Pracht, J. Seibert, P. Shushkov, S. Spicher
   M. Stahn, M. Steiner, T. Strunk, J. Stückrath, T. Rose, and J. Unsleber
   
 * started run on 2021/11/15 at 09:23:07.290     

           -------------------------------------------------
          |                Calculation Setup                |
           -------------------------------------------------

          program call               : xtb 04_3-hydroxy-acetophenone.xyz --gfn2 --chrg 0 --uhf 0 --alpb water -P 1
          coordinate file            : 04_3-hydroxy-acetophenone.xyz
          omp threads                :                     1
          number of atoms            :                    18
          number of electrons        :                    52
          charge                     :                     0
          spin                       :                   0.0
          first test random number   :      0.23020897785563

   ID    Z sym.   atoms
    1    6 C      1-6, 13, 15
    2    8 O      7, 14
    3    1 H      8-12, 16-18

           -------------------------------------------------
          |                 G F N 2 - x T B                 |
           -------------------------------------------------

        Reference                      10.1021/acs.jctc.8b01176
      * Hamiltonian:
        H0-scaling (s, p, d)           1.850000    2.230000    2.230000
        zeta-weighting                 0.500000
      * Dispersion:
        s8                             2.700000
        a1                             0.520000
        a2                             5.000000
        s9                             5.000000
      * Repulsion:
        kExp                           1.500000    1.000000
        rExp                           1.000000
      * Coulomb:
        alpha                          2.000000
        third order                    shell-resolved
        anisotropic                    true
        a3                             3.000000
        a5                             4.000000
        cn-shift                       1.200000
        cn-exp                         4.000000
        max-rad                        5.000000

      * Solvation model:               ALPB
        Solvent                        water
        Parameter file                 internal GFN2-xTB/ALPB
        Dielectric constant                8.0200E+01
        Reference state                gsolv [1 M gas/solution]
        Free energy shift                  1.0808E-03 Eh       6.7819E-01 kcal/mol
        Temperature                        2.9815E+02 K
        Density                            1.0000E+00 kg/L
        Solvent mass                       1.8000E+01 g/mol
        Interaction kernel             P16
        Born radius scaling (c1)           1.4744E+00
        Born radii integrator          GBOBC
        Born offset                        0.0000E+00 a0       0.0000E+00 AA
        H-bond correction              true
        Ion screening                  false
        Surface tension                    1.0000E-05 Eh       1.5569E+01 dyn/cm
        Grid points                               230 per atom
q/qsh data taken from xtbrestart
CAMM data taken from xtbrestart

          ...................................................
          :                      SETUP                      :
          :.................................................:
          :  # basis functions                  48          :
          :  # atomic orbitals                  48          :
          :  # shells                           28          :
          :  # electrons                        52          :
          :  max. iterations                   250          :
          :  Hamiltonian                  GFN2-xTB          :
          :  restarted?                       true          :
          :  GBSA solvation                   true          :
          :  PC potential                    false          :
          :  electronic temp.          300.0000000     K    :
          :  accuracy                    1.0000000          :
          :  -> integral cutoff          0.2500000E+02      :
          :  -> integral neglect         0.1000000E-07      :
          :  -> SCF convergence          0.1000000E-05 Eh   :
          :  -> wf. convergence          0.1000000E-03 e    :
          :  Broyden damping             0.4000000          :
          ...................................................

 iter      E             dE          RMSdq      gap      omega  full diag
   1    -29.7373040 -0.297373E+02  0.195E-04    2.93       0.0  T
   2    -29.7373040 -0.268642E-09  0.822E-05    2.93     286.6  T
   3    -29.7373040 -0.544134E-10  0.485E-05    2.93     486.2  T

   *** convergence criteria satisfied after 3 iterations ***

         #    Occupation            Energy/Eh            Energy/eV
      -------------------------------------------------------------
         1        2.0000           -0.7123820             -19.3849
       ...           ...                  ...                  ...
        20        2.0000           -0.4661705             -12.6851
        21        2.0000           -0.4652152             -12.6592
        22        2.0000           -0.4437284             -12.0745
        23        2.0000           -0.4398639             -11.9693
        24        2.0000           -0.4156250             -11.3097
        25        2.0000           -0.3986855             -10.8488
        26        2.0000           -0.3927101             -10.6862 (HOMO)
        27                         -0.2851392              -7.7590 (LUMO)
        28                         -0.2271276              -6.1805
        29                         -0.1981062              -5.3907
        30                         -0.0938069              -2.5526
        31                          0.0529384               1.4405
       ...                                ...                  ...
        48                          0.6370480              17.3350
      -------------------------------------------------------------
                  HL-Gap            0.1075710 Eh            2.9272 eV
             Fermi-level           -0.3389247 Eh           -9.2226 eV

 SCC (total)                   0 d,  0 h,  0 min,  0.010 sec
 SCC setup                      ...        0 min,  0.000 sec (  4.589%)
 Dispersion                     ...        0 min,  0.000 sec (  1.348%)
 classical contributions        ...        0 min,  0.000 sec (  0.222%)
 integral evaluation            ...        0 min,  0.002 sec ( 17.120%)
 iterations                     ...        0 min,  0.002 sec ( 22.359%)
 molecular gradient             ...        0 min,  0.005 sec ( 52.101%)
 printout                       ...        0 min,  0.000 sec (  2.026%)

         :::::::::::::::::::::::::::::::::::::::::::::::::::::
         ::                     SUMMARY                     ::
         :::::::::::::::::::::::::::::::::::::::::::::::::::::
         :: total energy             -29.332327818623 Eh    ::
         :: total w/o Gsasa/hb       -29.327665475043 Eh    ::
         :: gradient norm              0.021932600992 Eh/a0 ::
         :: HOMO-LUMO gap              2.927154570425 eV    ::
         ::.................................................::
         :: SCC energy               -29.737303965448 Eh    ::
         :: -> isotropic ES            0.066860365419 Eh    ::
         :: -> anisotropic ES          0.001230197454 Eh    ::
         :: -> anisotropic XC          0.010825370059 Eh    ::
         :: -> dispersion             -0.014236376942 Eh    ::
         :: -> Gsolv                  -0.017406361858 Eh    ::
         ::    -> Gelec               -0.012744018277 Eh    ::
         ::    -> Gsasa                0.001845510346 Eh    ::
         ::    -> Ghb                 -0.007588613625 Eh    ::
         ::    -> Gshift               0.001080759698 Eh    ::
         :: repulsion energy           0.404936903290 Eh    ::
         :: add. restraining           0.000000000000 Eh    ::
         :: total charge              -0.000000000000 e     ::
         :::::::::::::::::::::::::::::::::::::::::::::::::::::

           -------------------------------------------------
          |                Property Printout                |
           -------------------------------------------------

    * Orbital Energies and Occupations

         #    Occupation            Energy/Eh            Energy/eV
      -------------------------------------------------------------
         1        2.0000           -0.7123820             -19.3849
       ...           ...                  ...                  ...
        14        2.0000           -0.5185940             -14.1117
        15        2.0000           -0.5145150             -14.0007
        16        2.0000           -0.5123532             -13.9418
        17        2.0000           -0.4915225             -13.3750
        18        2.0000           -0.4791432             -13.0381
        19        2.0000           -0.4720659             -12.8456
        20        2.0000           -0.4661705             -12.6851
        21        2.0000           -0.4652152             -12.6592
        22        2.0000           -0.4437284             -12.0745
        23        2.0000           -0.4398639             -11.9693
        24        2.0000           -0.4156250             -11.3097
        25        2.0000           -0.3986855             -10.8488
        26        2.0000           -0.3927101             -10.6862 (HOMO)
        27                         -0.2851392              -7.7590 (LUMO)
        28                         -0.2271276              -6.1805
        29                         -0.1981062              -5.3907
        30                         -0.0938069              -2.5526
        31                          0.0529384               1.4405
        32                          0.0780559               2.1240
        33                          0.1095716               2.9816
        34                          0.1433885               3.9018
        35                          0.1543102               4.1990
        36                          0.1741376               4.7385
        37                          0.1783725               4.8538
       ...                                ...                  ...
        48                          0.6370480              17.3350
      -------------------------------------------------------------
                  HL-Gap            0.1075710 Eh            2.9272 eV
             Fermi-level           -0.3389247 Eh           -9.2226 eV

     #   Z          covCN         q      C6AA      α(0)
     1   6 C        2.916    -0.032    28.798     8.800
     2   6 C        2.914    -0.033    28.829     8.805
     3   6 C        2.913    -0.051    29.263     8.870
     4   6 C        2.840     0.150    24.748     8.153
     5   6 C        2.914    -0.072    29.788     8.950
     6   6 C        2.966    -0.016    28.417     8.744
     7   8 O        1.659    -0.453    21.904     6.318
     8   1 H        0.805     0.378     0.527     1.141
     9   1 H        0.925     0.056     2.247     2.344
    10   1 H        0.925     0.066     2.134     2.284
    11   1 H        0.925     0.066     2.126     2.280
    12   1 H        0.925     0.053     2.282     2.362
    13   6 C        2.816     0.239    23.010     7.859
    14   8 O        0.857    -0.450    22.706     6.389
    15   6 C        3.750    -0.153    23.533     6.918
    16   1 H        0.924     0.073     2.058     2.243
    17   1 H        0.924     0.090     1.876     2.142
    18   1 H        0.924     0.090     1.875     2.142

 Mol. C6AA /au·bohr⁶  :       3804.996394
 Mol. C8AA /au·bohr⁸  :      91750.868032
 Mol. α(0) /au        :         96.743864


Wiberg/Mayer (AO) data.
largest (>0.10) Wiberg bond orders for each atom

 ---------------------------------------------------------------------------
     #   Z sym  total        # sym  WBO       # sym  WBO       # sym  WBO
 ---------------------------------------------------------------------------
     1   6 C    3.990 --     2 C    1.444     6 C    1.376    12 H    0.967
     2   6 C    3.989 --     3 C    1.447     1 C    1.444     9 H    0.969
     3   6 C    3.988 --     2 C    1.447     4 C    1.356    10 H    0.967
     4   6 C    3.943 --     5 C    1.388     3 C    1.356     7 O    1.080
     5   6 C    3.986 --     4 C    1.388     6 C    1.382    11 H    0.959
     6   6 C    3.987 --     5 C    1.382     1 C    1.376    13 C    1.034
     7   8 O    2.080 --     4 C    1.080     8 H    0.838
     8   1 H    0.857 --     7 O    0.838
     9   1 H    0.996 --     2 C    0.969
    10   1 H    0.995 --     3 C    0.967
    11   1 H    0.996 --     5 C    0.959
    12   1 H    0.997 --     1 C    0.967
    13   6 C    3.904 --    14 O    1.765     6 C    1.034    15 C    1.017
    14   8 O    2.001 --    13 C    1.765
    15   6 C    3.990 --    13 C    1.017    16 H    0.982    17 H    0.953
                            18 H    0.953
    16   1 H    0.994 --    15 C    0.982
    17   1 H    0.992 --    15 C    0.953
    18   1 H    0.992 --    15 C    0.953
 ---------------------------------------------------------------------------

Topologies differ in total number of bonds
Writing topology from bond orders to xtbtopo.mol

molecular dipole:
                 x           y           z       tot (Debye)
 q only:       -0.982      -1.533       0.000
   full:       -0.900      -1.680       0.000       4.846
molecular quadrupole (traceless):
                xx          xy          yy          xz          yz          zz
 q only:      -11.806      -8.583      11.289       0.000       0.000       0.517
  q+dip:      -12.641     -10.152      14.062       0.000       0.000      -1.421
   full:      -14.326      -9.866      12.644       0.000       0.000       1.683


           -------------------------------------------------
          | TOTAL ENERGY              -29.332327818623 Eh   |
          | GRADIENT NORM               0.021932600992 Eh/α |
          | HOMO-LUMO GAP               2.927154570425 eV   |
           -------------------------------------------------

------------------------------------------------------------------------
 * finished run on 2021/11/15 at 09:23:07.324     
------------------------------------------------------------------------
 total:
 * wall-time:     0 d,  0 h,  0 min,  0.034 sec
 *  cpu-time:     0 d,  0 h,  0 min,  0.016 sec
 * ratio c/w:     0.462 speedup
 SCF:
 * wall-time:     0 d,  0 h,  0 min,  0.010 sec
 *  cpu-time:     0 d,  0 h,  0 min,  0.016 sec
 * ratio c/w:     1.535 speedup

