      -----------------------------------------------------------      
     |                   =====================                   |     
     |                           x T B                           |     
     |                   =====================                   |     
     |                         S. Grimme                         |     
     |          Mulliken Center for Theoretical Chemistry        |     
     |                    University of Bonn                     |     
      -----------------------------------------------------------      

   * xtb version 6.4.1 (afa7bdf) compiled by 'ehlert@majestix' on 2021-06-10

   xtb is free software: you can redistribute it and/or modify it under
   the terms of the GNU Lesser General Public License as published by
   the Free Software Foundation, either version 3 of the License, or
   (at your option) any later version.
   
   xtb is distributed in the hope that it will be useful,
   but WITHOUT ANY WARRANTY; without even the implied warranty of
   MERCHANTABILITY or FITNESS FOR A PARTICULAR PURPOSE.  See the
   GNU Lesser General Public License for more details.
   
   Cite this work as:
   * C. Bannwarth, E. Caldeweyher, S. Ehlert, A. Hansen, P. Pracht,
     J. Seibert, S. Spicher, S. Grimme, WIREs Comput. Mol. Sci., 2020, 11,
     e01493. DOI: 10.1002/wcms.1493
   
   for GFN2-xTB:
   * C. Bannwarth, S. Ehlert and S. Grimme., J. Chem. Theory Comput., 2019,
     15, 1652-1671. DOI: 10.1021/acs.jctc.8b01176
   for GFN1-xTB:
   * S. Grimme, C. Bannwarth, P. Shushkov, J. Chem. Theory Comput., 2017,
     13, 1989-2009. DOI: 10.1021/acs.jctc.7b00118
   for GFN0-xTB:
   * P. Pracht, E. Caldeweyher, S. Ehlert, S. Grimme, ChemRxiv, 2019, preprint.
     DOI: 10.26434/chemrxiv.8326202.v1
   for GFN-FF:
   * S. Spicher and S. Grimme, Angew. Chem. Int. Ed., 2020, 59, 15665-15673.
     DOI: 10.1002/anie.202004239
   
   for DFT-D4:
   * E. Caldeweyher, C. Bannwarth and S. Grimme, J. Chem. Phys., 2017,
     147, 034112. DOI: 10.1063/1.4993215
   * E. Caldeweyher, S. Ehlert, A. Hansen, H. Neugebauer, S. Spicher,
     C. Bannwarth and S. Grimme, J. Chem. Phys., 2019, 150, 154122.
     DOI: 10.1063/1.5090222
   * E. Caldeweyher, J.-M. Mewes, S. Ehlert and S. Grimme, Phys. Chem. Chem. Phys.
     2020, 22, 8499-8512. DOI: 10.1039/D0CP00502A
   
   for sTDA-xTB:
   * S. Grimme and C. Bannwarth, J. Chem. Phys., 2016, 145, 054103.
     DOI: 10.1063/1.4959605
   
   in the mass-spec context:
   * V. Asgeirsson, C. Bauer and S. Grimme, Chem. Sci., 2017, 8, 4879.
     DOI: 10.1039/c7sc00601b
   * J. Koopman and S. Grimme, ACS Omega 2019, 4, 12, 15120-15133.
     DOI: 10.1021/acsomega.9b02011
   
   for metadynamics refer to:
   * S. Grimme, J. Chem. Theory Comput., 2019, 155, 2847-2862
     DOI: 10.1021/acs.jctc.9b00143
   
   for SPH calculations refer to:
   * S. Spicher and S. Grimme, J. Chem. Theory Comput., 2021, 17, 1701-1714
     DOI: 10.1021/acs.jctc.0c01306
   
   with help from (in alphabetical order)
   P. Atkinson, C. Bannwarth, F. Bohle, G. Brandenburg, E. Caldeweyher
   M. Checinski, S. Dohm, S. Ehlert, S. Ehrlich, I. Gerasimov, J. Koopman
   C. Lavigne, S. Lehtola, F. März, M. Müller, F. Musil, H. Neugebauer
   J. Pisarek, C. Plett, P. Pracht, J. Seibert, P. Shushkov, S. Spicher
   M. Stahn, M. Steiner, T. Strunk, J. Stückrath, T. Rose, and J. Unsleber
   
 * started run on 2021/11/15 at 09:23:08.739     

           -------------------------------------------------
          |                Calculation Setup                |
           -------------------------------------------------

          program call               : xtb 19_4-cyanophenol.xyz --gfn2 --chrg 0 --uhf 0 --alpb water -P 1
          coordinate file            : 19_4-cyanophenol.xyz
          omp threads                :                     1
          number of atoms            :                    14
          number of electrons        :                    44
          charge                     :                     0
          spin                       :                   0.0
          first test random number   :      0.58219645846947

   ID    Z sym.   atoms
    1    6 C      1-6, 13
    2    8 O      7
    3    1 H      8-12
    4    7 N      14

           -------------------------------------------------
          |                 G F N 2 - x T B                 |
           -------------------------------------------------

        Reference                      10.1021/acs.jctc.8b01176
      * Hamiltonian:
        H0-scaling (s, p, d)           1.850000    2.230000    2.230000
        zeta-weighting                 0.500000
      * Dispersion:
        s8                             2.700000
        a1                             0.520000
        a2                             5.000000
        s9                             5.000000
      * Repulsion:
        kExp                           1.500000    1.000000
        rExp                           1.000000
      * Coulomb:
        alpha                          2.000000
        third order                    shell-resolved
        anisotropic                    true
        a3                             3.000000
        a5                             4.000000
        cn-shift                       1.200000
        cn-exp                         4.000000
        max-rad                        5.000000

      * Solvation model:               ALPB
        Solvent                        water
        Parameter file                 internal GFN2-xTB/ALPB
        Dielectric constant                8.0200E+01
        Reference state                gsolv [1 M gas/solution]
        Free energy shift                  1.0808E-03 Eh       6.7819E-01 kcal/mol
        Temperature                        2.9815E+02 K
        Density                            1.0000E+00 kg/L
        Solvent mass                       1.8000E+01 g/mol
        Interaction kernel             P16
        Born radius scaling (c1)           1.4744E+00
        Born radii integrator          GBOBC
        Born offset                        0.0000E+00 a0       0.0000E+00 AA
        H-bond correction              true
        Ion screening                  false
        Surface tension                    1.0000E-05 Eh       1.5569E+01 dyn/cm
        Grid points                               230 per atom
q/qsh data taken from xtbrestart
CAMM data taken from xtbrestart

          ...................................................
          :                      SETUP                      :
          :.................................................:
          :  # basis functions                  41          :
          :  # atomic orbitals                  41          :
          :  # shells                           23          :
          :  # electrons                        44          :
          :  max. iterations                   250          :
          :  Hamiltonian                  GFN2-xTB          :
          :  restarted?                       true          :
          :  GBSA solvation                   true          :
          :  PC potential                    false          :
          :  electronic temp.          300.0000000     K    :
          :  accuracy                    1.0000000          :
          :  -> integral cutoff          0.2500000E+02      :
          :  -> integral neglect         0.1000000E-07      :
          :  -> SCF convergence          0.1000000E-05 Eh   :
          :  -> wf. convergence          0.1000000E-03 e    :
          :  Broyden damping             0.4000000          :
          ...................................................

 iter      E             dE          RMSdq      gap      omega  full diag
   1    -24.8994217 -0.248994E+02  0.189E-04    3.52       0.0  T
   2    -24.8994217 -0.930633E-10  0.110E-04    3.52     242.2  T
   3    -24.8994217 -0.195222E-10  0.801E-05    3.52     333.6  T

   *** convergence criteria satisfied after 3 iterations ***

         #    Occupation            Energy/Eh            Energy/eV
      -------------------------------------------------------------
         1        2.0000           -0.7208457             -19.6152
       ...           ...                  ...                  ...
        16        2.0000           -0.4751402             -12.9292
        17        2.0000           -0.4719723             -12.8430
        18        2.0000           -0.4647635             -12.6469
        19        2.0000           -0.4366311             -11.8813
        20        2.0000           -0.4283407             -11.6557
        21        2.0000           -0.4234676             -11.5231
        22        2.0000           -0.3985984             -10.8464 (HOMO)
        23                         -0.2692650              -7.3271 (LUMO)
        24                         -0.2423159              -6.5938
        25                         -0.2185384              -5.9467
        26                         -0.1742309              -4.7411
        27                         -0.0907537              -2.4695
       ...                                ...                  ...
        41                          1.0865973              29.5678
      -------------------------------------------------------------
                  HL-Gap            0.1293335 Eh            3.5193 eV
             Fermi-level           -0.3339317 Eh           -9.0867 eV

 SCC (total)                   0 d,  0 h,  0 min,  0.006 sec
 SCC setup                      ...        0 min,  0.000 sec (  5.632%)
 Dispersion                     ...        0 min,  0.000 sec (  1.637%)
 classical contributions        ...        0 min,  0.000 sec (  0.309%)
 integral evaluation            ...        0 min,  0.001 sec ( 20.182%)
 iterations                     ...        0 min,  0.002 sec ( 30.659%)
 molecular gradient             ...        0 min,  0.003 sec ( 38.855%)
 printout                       ...        0 min,  0.000 sec (  2.391%)

         :::::::::::::::::::::::::::::::::::::::::::::::::::::
         ::                     SUMMARY                     ::
         :::::::::::::::::::::::::::::::::::::::::::::::::::::
         :: total energy             -24.490206400325 Eh    ::
         :: total w/o Gsasa/hb       -24.479606977779 Eh    ::
         :: gradient norm              0.037054130874 Eh/a0 ::
         :: HOMO-LUMO gap              3.519342544656 eV    ::
         ::.................................................::
         :: SCC energy               -24.899421727686 Eh    ::
         :: -> isotropic ES            0.040321344549 Eh    ::
         :: -> anisotropic ES          0.003546216691 Eh    ::
         :: -> anisotropic XC          0.023514644621 Eh    ::
         :: -> dispersion             -0.011180788467 Eh    ::
         :: -> Gsolv                  -0.019569827479 Eh    ::
         ::    -> Gelec               -0.008970404933 Eh    ::
         ::    -> Gsasa               -0.004940686767 Eh    ::
         ::    -> Ghb                 -0.006739495477 Eh    ::
         ::    -> Gshift               0.001080759698 Eh    ::
         :: repulsion energy           0.409212063543 Eh    ::
         :: add. restraining           0.000000000000 Eh    ::
         :: total charge              -0.000000000000 e     ::
         :::::::::::::::::::::::::::::::::::::::::::::::::::::

           -------------------------------------------------
          |                Property Printout                |
           -------------------------------------------------

    * Orbital Energies and Occupations

         #    Occupation            Energy/Eh            Energy/eV
      -------------------------------------------------------------
         1        2.0000           -0.7208457             -19.6152
       ...           ...                  ...                  ...
        10        2.0000           -0.5452466             -14.8369
        11        2.0000           -0.5354681             -14.5708
        12        2.0000           -0.5044582             -13.7270
        13        2.0000           -0.5032077             -13.6930
        14        2.0000           -0.5006391             -13.6231
        15        2.0000           -0.4934752             -13.4281
        16        2.0000           -0.4751402             -12.9292
        17        2.0000           -0.4719723             -12.8430
        18        2.0000           -0.4647635             -12.6469
        19        2.0000           -0.4366311             -11.8813
        20        2.0000           -0.4283407             -11.6557
        21        2.0000           -0.4234676             -11.5231
        22        2.0000           -0.3985984             -10.8464 (HOMO)
        23                         -0.2692650              -7.3271 (LUMO)
        24                         -0.2423159              -6.5938
        25                         -0.2185384              -5.9467
        26                         -0.1742309              -4.7411
        27                         -0.0907537              -2.4695
        28                          0.0638341               1.7370
        29                          0.0913584               2.4860
        30                          0.1285379               3.4977
        31                          0.1423985               3.8749
        32                          0.1529111               4.1609
        33                          0.1842466               5.0136
       ...                                ...                  ...
        41                          1.0865973              29.5678
      -------------------------------------------------------------
                  HL-Gap            0.1293335 Eh            3.5193 eV
             Fermi-level           -0.3339317 Eh           -9.0867 eV

     #   Z          covCN         q      C6AA      α(0)
     1   6 C        2.967     0.005    27.910     8.666
     2   6 C        2.920    -0.022    28.557     8.763
     3   6 C        2.911    -0.069    29.725     8.940
     4   6 C        2.843     0.160    24.547     8.120
     5   6 C        2.912    -0.055    29.363     8.885
     6   6 C        2.920    -0.023    28.569     8.765
     7   8 O        1.660    -0.437    21.573     6.270
     8   1 H        0.805     0.384     0.516     1.128
     9   1 H        0.925     0.055     2.261     2.351
    10   1 H        0.925     0.065     2.146     2.291
    11   1 H        0.925     0.068     2.104     2.268
    12   1 H        0.925     0.054     2.272     2.357
    13   6 C        1.907     0.118    28.193     8.575
    14   7 N        0.911    -0.303    27.787     7.624

 Mol. C6AA /au·bohr⁶  :       2870.609620
 Mol. C8AA /au·bohr⁸  :      71759.004687
 Mol. α(0) /au        :         85.003447


Wiberg/Mayer (AO) data.
largest (>0.10) Wiberg bond orders for each atom

 ---------------------------------------------------------------------------
     #   Z sym  total        # sym  WBO       # sym  WBO       # sym  WBO
 ---------------------------------------------------------------------------
     1   6 C    3.985 --     2 C    1.346     6 C    1.339    13 C    1.108
     2   6 C    3.989 --     3 C    1.476     1 C    1.346     9 H    0.969
     3   6 C    3.986 --     2 C    1.476     4 C    1.351    10 H    0.962
     4   6 C    3.919 --     3 C    1.351     5 C    1.344     7 O    1.105
     5   6 C    3.987 --     6 C    1.485     4 C    1.344    11 H    0.965
     6   6 C    3.990 --     5 C    1.485     1 C    1.339    12 H    0.969
     7   8 O    2.102 --     4 C    1.105     8 H    0.833
     8   1 H    0.853 --     7 O    0.833
     9   1 H    0.997 --     2 C    0.969
    10   1 H    0.995 --     3 C    0.962
    11   1 H    0.994 --     5 C    0.965
    12   1 H    0.997 --     6 C    0.969
    13   6 C    3.934 --    14 N    2.770     1 C    1.108
    14   7 N    2.952 --    13 C    2.770
 ---------------------------------------------------------------------------

Topologies differ in total number of bonds
Writing topology from bond orders to xtbtopo.mol

molecular dipole:
                 x           y           z       tot (Debye)
 q only:        2.000      -0.599      -0.001
   full:        2.358      -0.747      -0.001       6.287
molecular quadrupole (traceless):
                xx          xy          yy          xz          yz          zz
 q only:       -9.623      -6.224       7.796      -0.002       0.000       1.827
  q+dip:      -13.199      -7.780      12.546      -0.004      -0.000       0.653
   full:      -15.664      -7.874      11.819      -0.003       0.000       3.845


           -------------------------------------------------
          | TOTAL ENERGY              -24.490206400325 Eh   |
          | GRADIENT NORM               0.037054130874 Eh/α |
          | HOMO-LUMO GAP               3.519342544656 eV   |
           -------------------------------------------------

------------------------------------------------------------------------
 * finished run on 2021/11/15 at 09:23:08.768     
------------------------------------------------------------------------
 total:
 * wall-time:     0 d,  0 h,  0 min,  0.029 sec
 *  cpu-time:     0 d,  0 h,  0 min,  0.016 sec
 * ratio c/w:     0.539 speedup
 SCF:
 * wall-time:     0 d,  0 h,  0 min,  0.007 sec
 *  cpu-time:     0 d,  0 h,  0 min,  0.000 sec
 * ratio c/w:     0.000 speedup

