      -----------------------------------------------------------      
     |                   =====================                   |     
     |                           x T B                           |     
     |                   =====================                   |     
     |                         S. Grimme                         |     
     |          Mulliken Center for Theoretical Chemistry        |     
     |                    University of Bonn                     |     
      -----------------------------------------------------------      

   * xtb version 6.4.1 (afa7bdf) compiled by 'ehlert@majestix' on 2021-06-10

   xtb is free software: you can redistribute it and/or modify it under
   the terms of the GNU Lesser General Public License as published by
   the Free Software Foundation, either version 3 of the License, or
   (at your option) any later version.
   
   xtb is distributed in the hope that it will be useful,
   but WITHOUT ANY WARRANTY; without even the implied warranty of
   MERCHANTABILITY or FITNESS FOR A PARTICULAR PURPOSE.  See the
   GNU Lesser General Public License for more details.
   
   Cite this work as:
   * C. Bannwarth, E. Caldeweyher, S. Ehlert, A. Hansen, P. Pracht,
     J. Seibert, S. Spicher, S. Grimme, WIREs Comput. Mol. Sci., 2020, 11,
     e01493. DOI: 10.1002/wcms.1493
   
   for GFN2-xTB:
   * C. Bannwarth, S. Ehlert and S. Grimme., J. Chem. Theory Comput., 2019,
     15, 1652-1671. DOI: 10.1021/acs.jctc.8b01176
   for GFN1-xTB:
   * S. Grimme, C. Bannwarth, P. Shushkov, J. Chem. Theory Comput., 2017,
     13, 1989-2009. DOI: 10.1021/acs.jctc.7b00118
   for GFN0-xTB:
   * P. Pracht, E. Caldeweyher, S. Ehlert, S. Grimme, ChemRxiv, 2019, preprint.
     DOI: 10.26434/chemrxiv.8326202.v1
   for GFN-FF:
   * S. Spicher and S. Grimme, Angew. Chem. Int. Ed., 2020, 59, 15665-15673.
     DOI: 10.1002/anie.202004239
   
   for DFT-D4:
   * E. Caldeweyher, C. Bannwarth and S. Grimme, J. Chem. Phys., 2017,
     147, 034112. DOI: 10.1063/1.4993215
   * E. Caldeweyher, S. Ehlert, A. Hansen, H. Neugebauer, S. Spicher,
     C. Bannwarth and S. Grimme, J. Chem. Phys., 2019, 150, 154122.
     DOI: 10.1063/1.5090222
   * E. Caldeweyher, J.-M. Mewes, S. Ehlert and S. Grimme, Phys. Chem. Chem. Phys.
     2020, 22, 8499-8512. DOI: 10.1039/D0CP00502A
   
   for sTDA-xTB:
   * S. Grimme and C. Bannwarth, J. Chem. Phys., 2016, 145, 054103.
     DOI: 10.1063/1.4959605
   
   in the mass-spec context:
   * V. Asgeirsson, C. Bauer and S. Grimme, Chem. Sci., 2017, 8, 4879.
     DOI: 10.1039/c7sc00601b
   * J. Koopman and S. Grimme, ACS Omega 2019, 4, 12, 15120-15133.
     DOI: 10.1021/acsomega.9b02011
   
   for metadynamics refer to:
   * S. Grimme, J. Chem. Theory Comput., 2019, 155, 2847-2862
     DOI: 10.1021/acs.jctc.9b00143
   
   for SPH calculations refer to:
   * S. Spicher and S. Grimme, J. Chem. Theory Comput., 2021, 17, 1701-1714
     DOI: 10.1021/acs.jctc.0c01306
   
   with help from (in alphabetical order)
   P. Atkinson, C. Bannwarth, F. Bohle, G. Brandenburg, E. Caldeweyher
   M. Checinski, S. Dohm, S. Ehlert, S. Ehrlich, I. Gerasimov, J. Koopman
   C. Lavigne, S. Lehtola, F. März, M. Müller, F. Musil, H. Neugebauer
   J. Pisarek, C. Plett, P. Pracht, J. Seibert, P. Shushkov, S. Spicher
   M. Stahn, M. Steiner, T. Strunk, J. Stückrath, T. Rose, and J. Unsleber
   
 * started run on 2021/11/15 at 09:23:09.458     

           -------------------------------------------------
          |                Calculation Setup                |
           -------------------------------------------------

          program call               : xtb 27_diethylamine.xyz --gfn2 --chrg 0 --uhf 0 --alpb water -P 1
          coordinate file            : 27_diethylamine.xyz
          omp threads                :                     1
          number of atoms            :                    16
          number of electrons        :                    32
          charge                     :                     0
          spin                       :                   0.0
          first test random number   :      0.93418393908331

   ID    Z sym.   atoms
    1    7 N      1
    2    1 H      2, 4, 5, 7-9, 11, 12, 14-16
    3    6 C      3, 6, 10, 13

           -------------------------------------------------
          |                 G F N 2 - x T B                 |
           -------------------------------------------------

        Reference                      10.1021/acs.jctc.8b01176
      * Hamiltonian:
        H0-scaling (s, p, d)           1.850000    2.230000    2.230000
        zeta-weighting                 0.500000
      * Dispersion:
        s8                             2.700000
        a1                             0.520000
        a2                             5.000000
        s9                             5.000000
      * Repulsion:
        kExp                           1.500000    1.000000
        rExp                           1.000000
      * Coulomb:
        alpha                          2.000000
        third order                    shell-resolved
        anisotropic                    true
        a3                             3.000000
        a5                             4.000000
        cn-shift                       1.200000
        cn-exp                         4.000000
        max-rad                        5.000000

      * Solvation model:               ALPB
        Solvent                        water
        Parameter file                 internal GFN2-xTB/ALPB
        Dielectric constant                8.0200E+01
        Reference state                gsolv [1 M gas/solution]
        Free energy shift                  1.0808E-03 Eh       6.7819E-01 kcal/mol
        Temperature                        2.9815E+02 K
        Density                            1.0000E+00 kg/L
        Solvent mass                       1.8000E+01 g/mol
        Interaction kernel             P16
        Born radius scaling (c1)           1.4744E+00
        Born radii integrator          GBOBC
        Born offset                        0.0000E+00 a0       0.0000E+00 AA
        H-bond correction              true
        Ion screening                  false
        Surface tension                    1.0000E-05 Eh       1.5569E+01 dyn/cm
        Grid points                               230 per atom
q/qsh data taken from xtbrestart
CAMM data taken from xtbrestart

          ...................................................
          :                      SETUP                      :
          :.................................................:
          :  # basis functions                  31          :
          :  # atomic orbitals                  31          :
          :  # shells                           21          :
          :  # electrons                        32          :
          :  max. iterations                   250          :
          :  Hamiltonian                  GFN2-xTB          :
          :  restarted?                       true          :
          :  GBSA solvation                   true          :
          :  PC potential                    false          :
          :  electronic temp.          300.0000000     K    :
          :  accuracy                    1.0000000          :
          :  -> integral cutoff          0.2500000E+02      :
          :  -> integral neglect         0.1000000E-07      :
          :  -> SCF convergence          0.1000000E-05 Eh   :
          :  -> wf. convergence          0.1000000E-03 e    :
          :  Broyden damping             0.4000000          :
          ...................................................

 iter      E             dE          RMSdq      gap      omega  full diag
   1    -17.3119115 -0.173119E+02  0.179E-05   10.49       0.0  T
   2    -17.3119115 -0.184741E-12  0.113E-05   10.49    2219.6  T
   3    -17.3119115 -0.817124E-13  0.185E-06   10.49   13512.3  T

   *** convergence criteria satisfied after 3 iterations ***

         #    Occupation            Energy/Eh            Energy/eV
      -------------------------------------------------------------
         1        2.0000           -0.6313979             -17.1812
       ...           ...                  ...                  ...
        10        2.0000           -0.4696404             -12.7796
        11        2.0000           -0.4537773             -12.3479
        12        2.0000           -0.4530525             -12.3282
        13        2.0000           -0.4420314             -12.0283
        14        2.0000           -0.4377221             -11.9110
        15        2.0000           -0.4327774             -11.7765
        16        2.0000           -0.3574623              -9.7270 (HOMO)
        17                          0.0278758               0.7585 (LUMO)
        18                          0.0978871               2.6636
        19                          0.1044306               2.8417
        20                          0.1233560               3.3567
        21                          0.1506356               4.0990
       ...                                ...                  ...
        31                          0.2728953               7.4259
      -------------------------------------------------------------
                  HL-Gap            0.3853382 Eh           10.4856 eV
             Fermi-level           -0.1647933 Eh           -4.4843 eV

 SCC (total)                   0 d,  0 h,  0 min,  0.005 sec
 SCC setup                      ...        0 min,  0.000 sec (  8.061%)
 Dispersion                     ...        0 min,  0.000 sec (  1.592%)
 classical contributions        ...        0 min,  0.000 sec (  0.389%)
 integral evaluation            ...        0 min,  0.001 sec ( 16.545%)
 iterations                     ...        0 min,  0.002 sec ( 35.959%)
 molecular gradient             ...        0 min,  0.002 sec ( 34.239%)
 printout                       ...        0 min,  0.000 sec (  2.751%)

         :::::::::::::::::::::::::::::::::::::::::::::::::::::
         ::                     SUMMARY                     ::
         :::::::::::::::::::::::::::::::::::::::::::::::::::::
         :: total energy             -17.086815787583 Eh    ::
         :: total w/o Gsasa/hb       -17.085379153365 Eh    ::
         :: gradient norm              0.020719352962 Eh/a0 ::
         :: HOMO-LUMO gap             10.485585677511 eV    ::
         ::.................................................::
         :: SCC energy               -17.311911467224 Eh    ::
         :: -> isotropic ES            0.012458602210 Eh    ::
         :: -> anisotropic ES          0.005938002938 Eh    ::
         :: -> anisotropic XC          0.014365461561 Eh    ::
         :: -> dispersion             -0.007570907725 Eh    ::
         :: -> Gsolv                  -0.002555927432 Eh    ::
         ::    -> Gelec               -0.001119293215 Eh    ::
         ::    -> Gsasa               -0.001423757795 Eh    ::
         ::    -> Ghb                 -0.001093636120 Eh    ::
         ::    -> Gshift               0.001080759698 Eh    ::
         :: repulsion energy           0.225094272403 Eh    ::
         :: add. restraining           0.000000000000 Eh    ::
         :: total charge               0.000000000000 e     ::
         :::::::::::::::::::::::::::::::::::::::::::::::::::::

           -------------------------------------------------
          |                Property Printout                |
           -------------------------------------------------

    * Orbital Energies and Occupations

         #    Occupation            Energy/Eh            Energy/eV
      -------------------------------------------------------------
         1        2.0000           -0.6313979             -17.1812
       ...           ...                  ...                  ...
         4        2.0000           -0.5642407             -15.3538
         5        2.0000           -0.5623079             -15.3012
         6        2.0000           -0.5255431             -14.3008
         7        2.0000           -0.5178738             -14.0921
         8        2.0000           -0.4959942             -13.4967
         9        2.0000           -0.4950557             -13.4712
        10        2.0000           -0.4696404             -12.7796
        11        2.0000           -0.4537773             -12.3479
        12        2.0000           -0.4530525             -12.3282
        13        2.0000           -0.4420314             -12.0283
        14        2.0000           -0.4377221             -11.9110
        15        2.0000           -0.4327774             -11.7765
        16        2.0000           -0.3574623              -9.7270 (HOMO)
        17                          0.0278758               0.7585 (LUMO)
        18                          0.0978871               2.6636
        19                          0.1044306               2.8417
        20                          0.1233560               3.3567
        21                          0.1506356               4.0990
        22                          0.1607857               4.3752
        23                          0.1611062               4.3839
        24                          0.1657080               4.5091
        25                          0.1722740               4.6878
        26                          0.1900269               5.1709
        27                          0.2214747               6.0266
       ...                                ...                  ...
        31                          0.2728953               7.4259
      -------------------------------------------------------------
                  HL-Gap            0.3853382 Eh           10.4856 eV
             Fermi-level           -0.1647933 Eh           -4.4843 eV

     #   Z          covCN         q      C6AA      α(0)
     1   7 N        2.677    -0.293    27.554     7.796
     2   1 H        0.860     0.154     1.375     1.837
     3   6 C        3.739     0.021    20.299     6.429
     4   1 H        0.924     0.029     2.597     2.520
     5   1 H        0.922    -0.002     3.086     2.747
     6   6 C        3.749    -0.117    22.812     6.812
     7   1 H        0.924     0.052     2.293     2.368
     8   1 H        0.924     0.045     2.378     2.412
     9   1 H        0.924     0.041     2.439     2.442
    10   6 C        3.739     0.021    20.299     6.429
    11   1 H        0.924     0.029     2.597     2.520
    12   1 H        0.922    -0.002     3.086     2.747
    13   6 C        3.749    -0.117    22.812     6.812
    14   1 H        0.924     0.041     2.439     2.442
    15   1 H        0.924     0.045     2.378     2.412
    16   1 H        0.924     0.052     2.293     2.368

 Mol. C6AA /au·bohr⁶  :       1672.252449
 Mol. C8AA /au·bohr⁸  :      33795.263662
 Mol. α(0) /au        :         61.093540


Wiberg/Mayer (AO) data.
largest (>0.10) Wiberg bond orders for each atom

 ---------------------------------------------------------------------------
     #   Z sym  total        # sym  WBO       # sym  WBO       # sym  WBO
 ---------------------------------------------------------------------------
     1   7 N    3.045 --    10 C    1.010     3 C    1.010     2 H    0.951
     2   1 H    0.976 --     1 N    0.951
     3   6 C    3.987 --     6 C    1.019     1 N    1.010     4 H    0.975
                             5 H    0.967
     4   1 H    0.999 --     3 C    0.975
     5   1 H    1.000 --     3 C    0.967
     6   6 C    3.994 --     3 C    1.019     7 H    0.986     9 H    0.986
                             8 H    0.985
     7   1 H    0.997 --     6 C    0.986
     8   1 H    0.998 --     6 C    0.985
     9   1 H    0.998 --     6 C    0.986
    10   6 C    3.987 --    13 C    1.019     1 N    1.010    11 H    0.975
                            12 H    0.967
    11   1 H    0.999 --    10 C    0.975
    12   1 H    1.000 --    10 C    0.967
    13   6 C    3.994 --    10 C    1.019    16 H    0.986    14 H    0.986
                            15 H    0.985
    14   1 H    0.998 --    13 C    0.986
    15   1 H    0.998 --    13 C    0.985
    16   1 H    0.997 --    13 C    0.986
 ---------------------------------------------------------------------------

Topologies differ in total number of bonds
Writing topology from bond orders to xtbtopo.mol

molecular dipole:
                 x           y           z       tot (Debye)
 q only:       -0.122      -0.091      -0.000
   full:       -0.461       0.088      -0.000       1.192
molecular quadrupole (traceless):
                xx          xy          yy          xz          yz          zz
 q only:       -1.420       0.806      -0.760      -0.000       0.000       2.181
  q+dip:        0.005       1.438      -0.563      -0.000       0.000       0.557
   full:       -0.802       1.540      -0.568      -0.000       0.000       1.370


           -------------------------------------------------
          | TOTAL ENERGY              -17.086815787583 Eh   |
          | GRADIENT NORM               0.020719352962 Eh/α |
          | HOMO-LUMO GAP              10.485585677511 eV   |
           -------------------------------------------------

------------------------------------------------------------------------
 * finished run on 2021/11/15 at 09:23:09.484     
------------------------------------------------------------------------
 total:
 * wall-time:     0 d,  0 h,  0 min,  0.026 sec
 *  cpu-time:     0 d,  0 h,  0 min,  0.016 sec
 * ratio c/w:     0.608 speedup
 SCF:
 * wall-time:     0 d,  0 h,  0 min,  0.005 sec
 *  cpu-time:     0 d,  0 h,  0 min,  0.000 sec
 * ratio c/w:     0.000 speedup

