      -----------------------------------------------------------      
     |                   =====================                   |     
     |                           x T B                           |     
     |                   =====================                   |     
     |                         S. Grimme                         |     
     |          Mulliken Center for Theoretical Chemistry        |     
     |                    University of Bonn                     |     
      -----------------------------------------------------------      

   * xtb version 6.4.1 (afa7bdf) compiled by 'ehlert@majestix' on 2021-06-10

   xtb is free software: you can redistribute it and/or modify it under
   the terms of the GNU Lesser General Public License as published by
   the Free Software Foundation, either version 3 of the License, or
   (at your option) any later version.
   
   xtb is distributed in the hope that it will be useful,
   but WITHOUT ANY WARRANTY; without even the implied warranty of
   MERCHANTABILITY or FITNESS FOR A PARTICULAR PURPOSE.  See the
   GNU Lesser General Public License for more details.
   
   Cite this work as:
   * C. Bannwarth, E. Caldeweyher, S. Ehlert, A. Hansen, P. Pracht,
     J. Seibert, S. Spicher, S. Grimme, WIREs Comput. Mol. Sci., 2020, 11,
     e01493. DOI: 10.1002/wcms.1493
   
   for GFN2-xTB:
   * C. Bannwarth, S. Ehlert and S. Grimme., J. Chem. Theory Comput., 2019,
     15, 1652-1671. DOI: 10.1021/acs.jctc.8b01176
   for GFN1-xTB:
   * S. Grimme, C. Bannwarth, P. Shushkov, J. Chem. Theory Comput., 2017,
     13, 1989-2009. DOI: 10.1021/acs.jctc.7b00118
   for GFN0-xTB:
   * P. Pracht, E. Caldeweyher, S. Ehlert, S. Grimme, ChemRxiv, 2019, preprint.
     DOI: 10.26434/chemrxiv.8326202.v1
   for GFN-FF:
   * S. Spicher and S. Grimme, Angew. Chem. Int. Ed., 2020, 59, 15665-15673.
     DOI: 10.1002/anie.202004239
   
   for DFT-D4:
   * E. Caldeweyher, C. Bannwarth and S. Grimme, J. Chem. Phys., 2017,
     147, 034112. DOI: 10.1063/1.4993215
   * E. Caldeweyher, S. Ehlert, A. Hansen, H. Neugebauer, S. Spicher,
     C. Bannwarth and S. Grimme, J. Chem. Phys., 2019, 150, 154122.
     DOI: 10.1063/1.5090222
   * E. Caldeweyher, J.-M. Mewes, S. Ehlert and S. Grimme, Phys. Chem. Chem. Phys.
     2020, 22, 8499-8512. DOI: 10.1039/D0CP00502A
   
   for sTDA-xTB:
   * S. Grimme and C. Bannwarth, J. Chem. Phys., 2016, 145, 054103.
     DOI: 10.1063/1.4959605
   
   in the mass-spec context:
   * V. Asgeirsson, C. Bauer and S. Grimme, Chem. Sci., 2017, 8, 4879.
     DOI: 10.1039/c7sc00601b
   * J. Koopman and S. Grimme, ACS Omega 2019, 4, 12, 15120-15133.
     DOI: 10.1021/acsomega.9b02011
   
   for metadynamics refer to:
   * S. Grimme, J. Chem. Theory Comput., 2019, 155, 2847-2862
     DOI: 10.1021/acs.jctc.9b00143
   
   for SPH calculations refer to:
   * S. Spicher and S. Grimme, J. Chem. Theory Comput., 2021, 17, 1701-1714
     DOI: 10.1021/acs.jctc.0c01306
   
   with help from (in alphabetical order)
   P. Atkinson, C. Bannwarth, F. Bohle, G. Brandenburg, E. Caldeweyher
   M. Checinski, S. Dohm, S. Ehlert, S. Ehrlich, I. Gerasimov, J. Koopman
   C. Lavigne, S. Lehtola, F. März, M. Müller, F. Musil, H. Neugebauer
   J. Pisarek, C. Plett, P. Pracht, J. Seibert, P. Shushkov, S. Spicher
   M. Stahn, M. Steiner, T. Strunk, J. Stückrath, T. Rose, and J. Unsleber
   
 * started run on 2021/11/15 at 09:36:20.639     

           -------------------------------------------------
          |                Calculation Setup                |
           -------------------------------------------------

          program call               : xtb 32_1,2,3-trimethoxybenzene.xyz --gfn2 --chrg 0 --uhf 0 --alpb water --ohess -P 1
          coordinate file            : 32_1,2,3-trimethoxybenzene.xyz
          omp threads                :                     1
          number of atoms            :                    24
          number of electrons        :                    66
          charge                     :                     0
          spin                       :                   0.0
          first test random number   :      0.35628897104625

   ID    Z sym.   atoms
    1    6 C      1-6, 10, 16, 21
    2    1 H      7, 8, 11-14, 17-19, 22-24
    3    8 O      9, 15, 20

           -------------------------------------------------
          |                 G F N 2 - x T B                 |
           -------------------------------------------------

        Reference                      10.1021/acs.jctc.8b01176
      * Hamiltonian:
        H0-scaling (s, p, d)           1.850000    2.230000    2.230000
        zeta-weighting                 0.500000
      * Dispersion:
        s8                             2.700000
        a1                             0.520000
        a2                             5.000000
        s9                             5.000000
      * Repulsion:
        kExp                           1.500000    1.000000
        rExp                           1.000000
      * Coulomb:
        alpha                          2.000000
        third order                    shell-resolved
        anisotropic                    true
        a3                             3.000000
        a5                             4.000000
        cn-shift                       1.200000
        cn-exp                         4.000000
        max-rad                        5.000000

      * Solvation model:               ALPB
        Solvent                        water
        Parameter file                 internal GFN2-xTB/ALPB
        Dielectric constant                8.0200E+01
        Reference state                gsolv [1 M gas/solution]
        Free energy shift                  1.0808E-03 Eh       6.7819E-01 kcal/mol
        Temperature                        2.9815E+02 K
        Density                            1.0000E+00 kg/L
        Solvent mass                       1.8000E+01 g/mol
        Interaction kernel             P16
        Born radius scaling (c1)           1.4744E+00
        Born radii integrator          GBOBC
        Born offset                        0.0000E+00 a0       0.0000E+00 AA
        H-bond correction              true
        Ion screening                  false
        Surface tension                    1.0000E-05 Eh       1.5569E+01 dyn/cm
        Grid points                               230 per atom

          ...................................................
          :                      SETUP                      :
          :.................................................:
          :  # basis functions                  60          :
          :  # atomic orbitals                  60          :
          :  # shells                           36          :
          :  # electrons                        66          :
          :  max. iterations                   250          :
          :  Hamiltonian                  GFN2-xTB          :
          :  restarted?                      false          :
          :  GBSA solvation                   true          :
          :  PC potential                    false          :
          :  electronic temp.          300.0000000     K    :
          :  accuracy                    1.0000000          :
          :  -> integral cutoff          0.2500000E+02      :
          :  -> integral neglect         0.1000000E-07      :
          :  -> SCF convergence          0.1000000E-05 Eh   :
          :  -> wf. convergence          0.1000000E-03 e    :
          :  Broyden damping             0.4000000          :
          ...................................................

 iter      E             dE          RMSdq      gap      omega  full diag
   1    -37.9618976 -0.379619E+02  0.499E+00    4.27       0.0  T
   2    -38.0093208 -0.474232E-01  0.261E+00    4.20       1.0  T
   3    -38.0057500  0.357080E-02  0.103E+00    4.14       1.0  T
   4    -38.0124567 -0.670672E-02  0.350E-01    4.18       1.0  T
   5    -38.0134306 -0.973886E-03  0.973E-02    4.19       1.0  T
   6    -38.0134310 -0.419519E-06  0.431E-02    4.18       1.0  T
   7    -38.0134424 -0.113953E-04  0.140E-02    4.19       1.5  T
   8    -38.0134434 -0.100363E-05  0.369E-03    4.19       5.5  T
   9    -38.0134435 -0.391491E-07  0.156E-03    4.19      13.1  T
  10    -38.0134435 -0.470963E-08  0.286E-04    4.19      71.5  T
  11    -38.0134435 -0.380574E-09  0.190E-04    4.19     107.2  T

   *** convergence criteria satisfied after 11 iterations ***

         #    Occupation            Energy/Eh            Energy/eV
      -------------------------------------------------------------
         1        2.0000           -0.7191022             -19.5678
       ...           ...                  ...                  ...
        27        2.0000           -0.4606174             -12.5340
        28        2.0000           -0.4514258             -12.2839
        29        2.0000           -0.4382573             -11.9256
        30        2.0000           -0.4316591             -11.7460
        31        2.0000           -0.4016061             -10.9283
        32        2.0000           -0.3833528             -10.4316
        33        2.0000           -0.3813925             -10.3782 (HOMO)
        34                         -0.2275089              -6.1908 (LUMO)
        35                         -0.2163230              -5.8864
        36                         -0.0993554              -2.7036
        37                         -0.0062277              -0.1695
        38                          0.0296352               0.8064
       ...                                ...                  ...
        60                          0.6360763              17.3085
      -------------------------------------------------------------
                  HL-Gap            0.1538837 Eh            4.1874 eV
             Fermi-level           -0.3044507 Eh           -8.2845 eV

 SCC (total)                   0 d,  0 h,  0 min,  0.016 sec
 SCC setup                      ...        0 min,  0.001 sec (  3.695%)
 Dispersion                     ...        0 min,  0.000 sec (  1.347%)
 classical contributions        ...        0 min,  0.000 sec (  0.187%)
 integral evaluation            ...        0 min,  0.003 sec ( 15.746%)
 iterations                     ...        0 min,  0.007 sec ( 45.111%)
 molecular gradient             ...        0 min,  0.005 sec ( 32.674%)
 printout                       ...        0 min,  0.000 sec (  1.118%)

         :::::::::::::::::::::::::::::::::::::::::::::::::::::
         ::                     SUMMARY                     ::
         :::::::::::::::::::::::::::::::::::::::::::::::::::::
         :: total energy             -37.571559832943 Eh    ::
         :: total w/o Gsasa/hb       -37.570831487070 Eh    ::
         :: gradient norm              0.023822155783 Eh/a0 ::
         :: HOMO-LUMO gap              4.187388328106 eV    ::
         ::.................................................::
         :: SCC energy               -38.013443474018 Eh    ::
         :: -> isotropic ES            0.060566301789 Eh    ::
         :: -> anisotropic ES          0.004758193141 Eh    ::
         :: -> anisotropic XC          0.007837173659 Eh    ::
         :: -> dispersion             -0.019522148112 Eh    ::
         :: -> Gsolv                  -0.011465622739 Eh    ::
         ::    -> Gelec               -0.010737276866 Eh    ::
         ::    -> Gsasa                0.000187823135 Eh    ::
         ::    -> Ghb                 -0.001996928706 Eh    ::
         ::    -> Gshift               0.001080759698 Eh    ::
         :: repulsion energy           0.441791020667 Eh    ::
         :: add. restraining           0.000000000000 Eh    ::
         :: total charge              -0.000000000000 e     ::
         :::::::::::::::::::::::::::::::::::::::::::::::::::::

      ----------------------------------------------------------- 
     |                   =====================                   |
     |                        A N C O P T                        |
     |                   =====================                   |
     |               Approximate Normal Coordinate               |
     |                Rational Function Optimizer                |
      ----------------------------------------------------------- 

          ...................................................
          :                      SETUP                      :
          :.................................................:
          :   optimization level            normal          :
          :   max. optcycles                   200          :
          :   ANC micro-cycles                  20          :
          :   degrees of freedom                66          :
          :.................................................:
          :   RF solver                   davidson          :
          :   write xtbopt.log                true          :
          :   linear?                        false          :
          :   energy convergence         0.5000000E-05 Eh   :
          :   grad. convergence          0.1000000E-02 Eh/α :
          :   maximium RF displ.         1.0000000          :
          :   Hlow (freq-cutoff)         0.1000000E-01      :
          :   Hmax (freq-cutoff)         5.0000000          :
          :   S6 in model hess.         20.0000000          :
          ...................................................

generating ANC from model Hessian ...
Using Lindh-Hessian (1995)
 Shifting diagonal of input Hessian by   9.050000235505135E-003
 Lowest  eigenvalues of input Hessian
    0.000000    0.000000    0.000000    0.000000    0.000000    0.000000
    0.010000    0.011129    0.012429    0.013427    0.014273    0.014630
    0.014829    0.015498    0.020639    0.026140    0.027902    0.033162
 Highest eigenvalues
    1.612991    1.750198    1.817816    1.871984    2.082818    2.107585
 

........................................................................
.............................. CYCLE    1 ..............................
........................................................................
   1    -38.0134435 -0.380134E+02  0.655E-05    4.19       0.0  T
   2    -38.0134435 -0.177209E-10  0.447E-05    4.19     457.0  T
   3    -38.0134435 -0.581935E-11  0.305E-05    4.19     668.8  T
     SCC iter.                  ...        0 min,  0.003 sec
     gradient                   ...        0 min,  0.005 sec
 * total energy  :   -37.5715598 Eh     change       -0.1835119E-09 Eh
   gradient norm :     0.0238232 Eh/α   predicted     0.0000000E+00 (-100.00%)
   displ. norm   :     0.0966543 α      lambda       -0.1405406E-02
   maximum displ.:     0.0381399 α      in ANC's #12, #23, #5, ...

........................................................................
.............................. CYCLE    2 ..............................
........................................................................
   1    -38.0263817 -0.380264E+02  0.929E-02    4.23       0.0  T
   2    -38.0263851 -0.346458E-05  0.576E-02    4.23       1.0  T
   3    -38.0263802  0.492741E-05  0.181E-02    4.23       1.1  T
   4    -38.0263867 -0.645968E-05  0.257E-03    4.23       7.9  T
   5    -38.0263867 -0.261739E-07  0.165E-03    4.23      12.4  T
   6    -38.0263867 -0.128339E-07  0.757E-04    4.23      27.0  T
   7    -38.0263867 -0.223936E-08  0.323E-04    4.23      63.1  T
     SCC iter.                  ...        0 min,  0.005 sec
     gradient                   ...        0 min,  0.005 sec
 * total energy  :   -37.5724264 Eh     change       -0.8665970E-03 Eh
   gradient norm :     0.0075985 Eh/α   predicted    -0.7092716E-03 ( -18.15%)
   displ. norm   :     0.0518497 α      lambda       -0.1445169E-03
   maximum displ.:     0.0316968 α      in ANC's #5, #10, #12, ...

........................................................................
.............................. CYCLE    3 ..............................
........................................................................
   1    -38.0301290 -0.380301E+02  0.355E-02    4.24       0.0  T
   2    -38.0301297 -0.735435E-06  0.217E-02    4.24       1.0  T
   3    -38.0301289  0.810933E-06  0.958E-03    4.24       2.1  T
   4    -38.0301301 -0.121444E-05  0.128E-03    4.24      16.0  T
   5    -38.0301301 -0.475080E-08  0.810E-04    4.24      25.2  T
   6    -38.0301301 -0.303172E-08  0.375E-04    4.24      54.4  T
     SCC iter.                  ...        0 min,  0.004 sec
     gradient                   ...        0 min,  0.005 sec
 * total energy  :   -37.5725119 Eh     change       -0.8544770E-04 Eh
   gradient norm :     0.0028425 Eh/α   predicted    -0.7249186E-04 ( -15.16%)
   displ. norm   :     0.0345412 α      lambda       -0.2428944E-04
   maximum displ.:     0.0238651 α      in ANC's #5, #10, #8, ...

........................................................................
.............................. CYCLE    4 ..............................
........................................................................
   1    -38.0303445 -0.380303E+02  0.175E-02    4.24       0.0  T
   2    -38.0303447 -0.176489E-06  0.105E-02    4.24       1.9  T
   3    -38.0303445  0.171085E-06  0.481E-03    4.24       4.2  T
   4    -38.0303447 -0.265240E-06  0.687E-04    4.24      29.7  T
   5    -38.0303447 -0.139273E-08  0.429E-04    4.24      47.6  T
     SCC iter.                  ...        0 min,  0.006 sec
     gradient                   ...        0 min,  0.009 sec
 * total energy  :   -37.5725298 Eh     change       -0.1791897E-04 Eh
   gradient norm :     0.0013419 Eh/α   predicted    -0.1224774E-04 ( -31.65%)
   displ. norm   :     0.0643898 α      lambda       -0.1650277E-04
   maximum displ.:     0.0415760 α      in ANC's #5, #3, #8, ...

........................................................................
.............................. CYCLE    5 ..............................
........................................................................
   1    -38.0295681 -0.380296E+02  0.308E-02    4.24       0.0  T
   2    -38.0295684 -0.309326E-06  0.185E-02    4.24       1.1  T
   3    -38.0295680  0.420544E-06  0.656E-03    4.24       3.1  T
   4    -38.0295686 -0.584995E-06  0.103E-03    4.24      19.8  T
   5    -38.0295686 -0.246344E-08  0.628E-04    4.24      32.5  T
   6    -38.0295686 -0.162248E-08  0.222E-04    4.24      92.0  T
     SCC iter.                  ...        0 min,  0.006 sec
     gradient                   ...        0 min,  0.006 sec
 * total energy  :   -37.5725398 Eh     change       -0.1004022E-04 Eh
   gradient norm :     0.0015572 Eh/α   predicted    -0.8269914E-05 ( -17.63%)
   displ. norm   :     0.0111229 α      lambda       -0.2536752E-05
   maximum displ.:     0.0067746 α      in ANC's #3, #1, #5, ...

........................................................................
.............................. CYCLE    6 ..............................
........................................................................
   1    -38.0295616 -0.380296E+02  0.571E-03    4.24       0.0  T
   2    -38.0295616 -0.218524E-07  0.341E-03    4.24       6.0  T
   3    -38.0295616  0.187211E-07  0.160E-03    4.24      12.7  T
   4    -38.0295616 -0.292439E-07  0.191E-04    4.24     106.9  T
   5    -38.0295616 -0.183590E-09  0.121E-04    4.24     168.7  T
     SCC iter.                  ...        0 min,  0.004 sec
     gradient                   ...        0 min,  0.005 sec
 * total energy  :   -37.5725425 Eh     change       -0.2676108E-05 Eh
   gradient norm :     0.0005779 Eh/α   predicted    -0.1269023E-05 ( -52.58%)
   displ. norm   :     0.0203047 α      lambda       -0.1536829E-05
   maximum displ.:     0.0156639 α      in ANC's #3, #1, #8, ...

   *** GEOMETRY OPTIMIZATION CONVERGED AFTER 6 ITERATIONS ***

------------------------------------------------------------------------
 total energy gain   :        -0.0009827 Eh       -0.6166 kcal/mol
 total RMSD          :         0.0435698 a0        0.0231 Å
 total power (kW/mol):        -0.4300044 (step)  -29.3565 (real)
------------------------------------------------------------------------

 ANCopt (total)                0 d,  0 h,  0 min,  0.088 sec
 optimizer setup                ...        0 min,  0.000 sec (  0.198%)
 model hessian                  ...        0 min,  0.003 sec (  3.383%)
 ANC generation                 ...        0 min,  0.000 sec (  0.547%)
 coordinate transformation      ...        0 min,  0.000 sec (  0.071%)
 single point calculation       ...        0 min,  0.082 sec ( 93.324%)
 optimization log               ...        0 min,  0.001 sec (  1.606%)
 hessian update                 ...        0 min,  0.000 sec (  0.059%)
 rational function              ...        0 min,  0.000 sec (  0.406%)

================
 final structure:
================
24
 xtb: 6.4.1 (afa7bdf)
C         1.20615686562851   -1.65428770836877    0.15748107238327
C         1.21534552109793   -0.28187034682238   -0.07011469046187
C        -0.00000331807211    0.40078600504294   -0.20134178776591
C        -1.21521311790735   -0.28213641146118   -0.07015831500493
C        -1.20573388425203   -1.65455777047085    0.15738023593553
C         0.00028331825985   -2.32111837388468    0.26398785746768
H        -2.12737446638339   -2.20295410483217    0.25323603010228
H         0.00039225255087   -3.38534696715104    0.43896627406036
O        -2.33584741505451    0.48608717596316   -0.17488597267480
C        -3.59872225745708   -0.15022696442787   -0.10274535759111
H        -3.74521015436158   -0.62511681571414    0.87083675124440
H        -4.32538815024594    0.64812738452860   -0.23463634974196
H        -3.71412945298008   -0.88893664577087   -0.89943931004075
H         2.12791500916774   -2.20245985736824    0.25349358315408
O         2.33581761366355    0.48658936416627   -0.17482190402100
C         3.59882057549996   -0.14954415376244   -0.10338822738300
H         4.32529491606524    0.64888741949123   -0.23586799609651
H         3.74600694960050   -0.62426350192311    0.87017261068572
H         3.71381113216656   -0.88836062225622   -0.90004054291802
O        -0.00013661621714    1.75916988989657   -0.49123294735729
C        -0.00071101789217    2.59230162818542    0.65784226125459
H         0.89420381623147    2.41817289362198    1.26280492509663
H        -0.00106032816283    3.61241619637503    0.28208836153262
H        -0.89571179094598    2.41744228694274    1.26245943813996
 
 Bond Distances (Angstroems)
 ---------------------------
C1-C2=1.3912         C1-C6=1.3821         C1-H14=1.0767        C2-C1=1.3912         C2-C3=1.4001         C2-O15=1.3627        
C3-C2=1.4001         C3-C4=1.4001         C3-O20=1.3890        C4-C3=1.4001         C4-C5=1.3912         C4-O9=1.3627         
C5-C4=1.3912         C5-C6=1.3821         C5-H7=1.0767         C6-C1=1.3821         C6-C5=1.3821         C6-H8=1.0785         
H7-C5=1.0767         H8-C6=1.0785         O9-C4=1.3627         O9-C10=1.4160        C10-O9=1.4160        C10-H11=1.0931       
C10-H12=1.0876       C10-H13=1.0926       H11-C10=1.0931       H12-C10=1.0876       H13-C10=1.0926       H14-C1=1.0767        
O15-C2=1.3627        O15-C16=1.4160       C16-O15=1.4160       C16-H17=1.0876       C16-H18=1.0931       C16-H19=1.0926       
H17-C16=1.0876       H18-C16=1.0931       H19-C16=1.0926       O20-C3=1.3890        O20-C21=1.4193       C21-O20=1.4193       
C21-H22=1.0942       C21-H23=1.0871       C21-H24=1.0941       H22-C21=1.0942       H23-C21=1.0871       H24-C21=1.0941       
 C  H  Rav=1.0878 sigma=0.0065  Rmin=1.0767  Rmax=1.0942    12
 C  C  Rav=1.3911 sigma=0.0074  Rmin=1.3821  Rmax=1.4001     6
 O  C  Rav=1.3943 sigma=0.0245  Rmin=1.3627  Rmax=1.4193     6
 
 selected bond angles (degree)
 --------------------
C6-C1-C2=119.63                H14-C1-C2=120.74               H14-C1-C6=119.63               C3-C2-C1=119.38                
O15-C2-C1=125.05               O15-C2-C3=115.57               C4-C3-C2=120.45                O20-C3-C2=119.77               
O20-C3-C4=119.77               C5-C4-C3=119.38                O9-C4-C3=115.57                O9-C4-C5=125.05                
C6-C5-C4=119.63                H7-C5-C4=120.74                H7-C5-C6=119.63                C5-C6-C1=121.51                
H8-C6-C1=119.24                H8-C6-C5=119.24                C10-O9-C4=118.44               H11-C10-O9=111.11              
H12-C10-O9=105.06              H12-C10-H11=109.72             H13-C10-O9=111.16              H13-C10-H11=109.97             
H13-C10-H12=109.71             
 
 selected dihedral angles (degree)
 ---------------------------------
C3-C2-C1-C6=359.36            C3-C2-C1-H14=179.48           O15-C2-C1-C6=179.04           O15-C2-C1-H14=359.16          
C4-C3-C2-C1=  1.68            C4-C3-C2-O15=181.96           O20-C3-C2-C1=183.02           O20-C3-C2-O15=  3.31          
C5-C4-C3-C2=358.32            C5-C4-C3-O20=176.97           O9-C4-C3-C2=178.03            O9-C4-C3-O20=356.69           
C6-C5-C4-C3=  0.65            C6-C5-C4-O9=180.96            H7-C5-C4-C3=180.53            H7-C5-C4-O9=  0.85            
C5-C6-C1-C2=359.61            C5-C6-C1-H14=179.50           H8-C6-C1-C2=179.91            H8-C6-C1-H14=359.79           
C1-C6-C5-C4=  0.38            C1-C6-C5-H7=180.50            H8-C6-C5-C4=180.09            H8-C6-C5-H7=  0.21            
C10-O9-C4-C3=177.62           C10-O9-C4-C5=357.32           H11-C10-O9-C4= 62.82          H12-C10-O9-C4=181.41          
H13-C10-O9-C4=300.01          
           -------------------------------------------------
          |                Final Singlepoint                |
           -------------------------------------------------

          ...................................................
          :                      SETUP                      :
          :.................................................:
          :  # basis functions                  60          :
          :  # atomic orbitals                  60          :
          :  # shells                           36          :
          :  # electrons                        66          :
          :  max. iterations                   250          :
          :  Hamiltonian                  GFN2-xTB          :
          :  restarted?                      false          :
          :  GBSA solvation                   true          :
          :  PC potential                    false          :
          :  electronic temp.          300.0000000     K    :
          :  accuracy                    1.0000000          :
          :  -> integral cutoff          0.2500000E+02      :
          :  -> integral neglect         0.1000000E-07      :
          :  -> SCF convergence          0.1000000E-05 Eh   :
          :  -> wf. convergence          0.1000000E-03 e    :
          :  Broyden damping             0.4000000          :
          ...................................................

 iter      E             dE          RMSdq      gap      omega  full diag
   1    -38.0295616 -0.380296E+02  0.626E-05    4.24       0.0  T
   2    -38.0295616 -0.999734E-11  0.451E-05    4.24     452.4  T
   3    -38.0295616 -0.520828E-11  0.222E-05    4.24     920.3  T

   *** convergence criteria satisfied after 3 iterations ***

         #    Occupation            Energy/Eh            Energy/eV
      -------------------------------------------------------------
         1        2.0000           -0.7204758             -19.6051
       ...           ...                  ...                  ...
        27        2.0000           -0.4598496             -12.5131
        28        2.0000           -0.4509480             -12.2709
        29        2.0000           -0.4395340             -11.9603
        30        2.0000           -0.4312100             -11.7338
        31        2.0000           -0.4011401             -10.9156
        32        2.0000           -0.3841946             -10.4545
        33        2.0000           -0.3822800             -10.4024 (HOMO)
        34                         -0.2265316              -6.1642 (LUMO)
        35                         -0.2151280              -5.8539
        36                         -0.0955965              -2.6013
        37                         -0.0013461              -0.0366
        38                          0.0364402               0.9916
       ...                                ...                  ...
        60                          0.6543367              17.8054
      -------------------------------------------------------------
                  HL-Gap            0.1557484 Eh            4.2381 eV
             Fermi-level           -0.3044058 Eh           -8.2833 eV

 SCC (total)                   0 d,  0 h,  0 min,  0.015 sec
 SCC setup                      ...        0 min,  0.000 sec (  3.112%)
 Dispersion                     ...        0 min,  0.000 sec (  0.442%)
 classical contributions        ...        0 min,  0.000 sec (  0.143%)
 integral evaluation            ...        0 min,  0.002 sec ( 15.780%)
 iterations                     ...        0 min,  0.003 sec ( 22.165%)
 molecular gradient             ...        0 min,  0.008 sec ( 56.734%)
 printout                       ...        0 min,  0.000 sec (  1.468%)

         :::::::::::::::::::::::::::::::::::::::::::::::::::::
         ::                     SUMMARY                     ::
         :::::::::::::::::::::::::::::::::::::::::::::::::::::
         :: total energy             -37.572542513195 Eh    ::
         :: total w/o Gsasa/hb       -37.571784349336 Eh    ::
         :: gradient norm              0.000580020937 Eh/a0 ::
         :: HOMO-LUMO gap              4.238128461447 eV    ::
         ::.................................................::
         :: SCC energy               -38.029561612531 Eh    ::
         :: -> isotropic ES            0.060199334857 Eh    ::
         :: -> anisotropic ES          0.003898899744 Eh    ::
         :: -> anisotropic XC          0.007150805936 Eh    ::
         :: -> dispersion             -0.019588877151 Eh    ::
         :: -> Gsolv                  -0.011256795678 Eh    ::
         ::    -> Gelec               -0.010498631818 Eh    ::
         ::    -> Gsasa                0.000125809497 Eh    ::
         ::    -> Ghb                 -0.001964733054 Eh    ::
         ::    -> Gshift               0.001080759698 Eh    ::
         :: repulsion energy           0.456926414570 Eh    ::
         :: add. restraining           0.000000000000 Eh    ::
         :: total charge              -0.000000000000 e     ::
         :::::::::::::::::::::::::::::::::::::::::::::::::::::

           ------------------------------------------------- 
          |                Numerical Hessian                |
           ------------------------------------------------- 
step length          :   0.00500
SCC accuracy         :   0.30000
Hessian scale factor :   1.00000
frozen atoms in %    :   0.00000    0
RMS gradient         :   0.00058
estimated CPU  time      0.03 min
estimated wall time      0.03 min

writing file <hessian>.

 projected vibrational frequencies (cm⁻¹)
eigval :       -0.00    -0.00    -0.00     0.00     0.00     0.00
eigval :      -35.98    63.07   102.46   109.35   157.26   174.29
eigval :      184.45   215.41   232.34   238.19   269.85   325.58
eigval :      353.92   370.41   463.11   502.41   547.64   579.01
eigval :      601.59   680.37   716.01   780.27   791.40   841.03
eigval :      906.28   909.21  1008.71  1036.86  1093.24  1107.90
eigval :     1113.17  1113.30  1121.35  1129.60  1141.42  1155.92
eigval :     1181.06  1198.37  1228.25  1296.73  1320.22  1384.67
eigval :     1386.65  1389.30  1445.14  1446.30  1457.27  1457.36
eigval :     1457.80  1468.18  1468.89  1471.70  1571.14  1579.42
eigval :     2926.48  2943.82  2946.78  2946.83  2959.52  2959.83
eigval :     3031.36  3035.30  3035.45  3097.47  3120.21  3125.09
           -------------------------------------------------
          |                Property Printout                |
           -------------------------------------------------

    * Orbital Energies and Occupations

         #    Occupation            Energy/Eh            Energy/eV
      -------------------------------------------------------------
         1        2.0000           -0.7204758             -19.6051
       ...           ...                  ...                  ...
        21        2.0000           -0.5044013             -13.7255
        22        2.0000           -0.4846376             -13.1877
        23        2.0000           -0.4823795             -13.1262
        24        2.0000           -0.4779852             -13.0066
        25        2.0000           -0.4647682             -12.6470
        26        2.0000           -0.4607111             -12.5366
        27        2.0000           -0.4598496             -12.5131
        28        2.0000           -0.4509480             -12.2709
        29        2.0000           -0.4395340             -11.9603
        30        2.0000           -0.4312100             -11.7338
        31        2.0000           -0.4011400             -10.9156
        32        2.0000           -0.3841947             -10.4545
        33        2.0000           -0.3822799             -10.4024 (HOMO)
        34                         -0.2265318              -6.1642 (LUMO)
        35                         -0.2151280              -5.8539
        36                         -0.0955966              -2.6013
        37                         -0.0013461              -0.0366
        38                          0.0364402               0.9916
        39                          0.0470626               1.2806
        40                          0.1095504               2.9810
        41                          0.1132897               3.0828
        42                          0.1285261               3.4974
        43                          0.1314654               3.5774
        44                          0.1356176               3.6903
       ...                                ...                  ...
        60                          0.6543366              17.8054
      -------------------------------------------------------------
                  HL-Gap            0.1557482 Eh            4.2381 eV
             Fermi-level           -0.3044058 Eh           -8.2833 eV

     #   Z          covCN         q      C6AA      α(0)
     1   6 C        2.916    -0.087    30.173     9.008
     2   6 C        2.862     0.122    25.311     8.246
     3   6 C        2.874     0.084    26.128     8.379
     4   6 C        2.862     0.122    25.311     8.246
     5   6 C        2.916    -0.087    30.173     9.008
     6   6 C        2.921    -0.045    29.119     8.849
     7   1 H        0.926     0.061     2.189     2.314
     8   1 H        0.926     0.063     2.165     2.301
     9   8 O        1.704    -0.293    18.866     5.864
    10   6 C        3.642     0.019    20.609     6.527
    11   1 H        0.924     0.059     2.215     2.327
    12   1 H        0.925     0.084     1.941     2.178
    13   1 H        0.924     0.058     2.223     2.332
    14   1 H        0.926     0.061     2.189     2.314
    15   8 O        1.704    -0.293    18.866     5.864
    16   6 C        3.642     0.019    20.608     6.527
    17   1 H        0.925     0.084     1.941     2.178
    18   1 H        0.924     0.059     2.215     2.327
    19   1 H        0.924     0.058     2.223     2.332
    20   8 O        1.702    -0.340    19.700     5.992
    21   6 C        3.652     0.036    20.282     6.468
    22   1 H        0.924     0.042     2.424     2.435
    23   1 H        0.925     0.073     2.055     2.242
    24   1 H        0.924     0.042     2.423     2.434

 Mol. C6AA /au·bohr⁶  :       5744.093297
 Mol. C8AA /au·bohr⁸  :     131364.067306
 Mol. α(0) /au        :        116.693014


Wiberg/Mayer (AO) data.
largest (>0.10) Wiberg bond orders for each atom

 ---------------------------------------------------------------------------
     #   Z sym  total        # sym  WBO       # sym  WBO       # sym  WBO
 ---------------------------------------------------------------------------
     1   6 C    3.981 --     6 C    1.441     2 C    1.360    14 H    0.963
     2   6 C    3.937 --     1 C    1.360     3 C    1.333    15 O    1.066
     3   6 C    3.931 --     2 C    1.333     4 C    1.333    20 O    0.996
                             6 C    0.100
     4   6 C    3.937 --     5 C    1.360     3 C    1.333     9 O    1.066
     5   6 C    3.981 --     6 C    1.441     4 C    1.360     7 H    0.963
     6   6 C    3.989 --     1 C    1.441     5 C    1.441     8 H    0.968
                             3 C    0.100
     7   1 H    0.996 --     5 C    0.963
     8   1 H    0.996 --     6 C    0.968
     9   8 O    2.217 --     4 C    1.066    10 C    0.968
    10   6 C    3.926 --    12 H    0.977    13 H    0.977    11 H    0.976
                             9 O    0.968
    11   1 H    0.997 --    10 C    0.976
    12   1 H    0.993 --    10 C    0.977
    13   1 H    0.997 --    10 C    0.977
    14   1 H    0.996 --     1 C    0.963
    15   8 O    2.217 --     2 C    1.066    16 C    0.968
    16   6 C    3.926 --    17 H    0.977    19 H    0.977    18 H    0.976
                            15 O    0.968
    17   1 H    0.993 --    16 C    0.977
    18   1 H    0.997 --    16 C    0.976
    19   1 H    0.997 --    16 C    0.977
    20   8 O    2.076 --     3 C    0.996    21 C    0.961
    21   6 C    3.938 --    22 H    0.981    24 H    0.981    23 H    0.979
                            20 O    0.961
    22   1 H    0.998 --    21 C    0.981
    23   1 H    0.994 --    21 C    0.979
    24   1 H    0.998 --    21 C    0.981
 ---------------------------------------------------------------------------

Topologies differ in total number of bonds
Writing topology from bond orders to xtbtopo.mol

molecular dipole:
                 x           y           z       tot (Debye)
 q only:       -0.000      -0.987       0.678
   full:       -0.000      -1.137       0.778       3.501
molecular quadrupole (traceless):
                xx          xy          yy          xz          yz          zz
 q only:       12.869      -0.001      -3.595      -0.005       3.469      -9.275
  q+dip:       12.878      -0.000      -3.369      -0.003       3.113      -9.509
   full:       12.615      -0.001      -4.364      -0.004       3.957      -8.251

           -------------------------------------------------
          |                Geometry Summary                 |
           -------------------------------------------------

      molecular mass/u    :      168.1901269
   center of mass at/Å    :       -0.0000074       0.0034578      -0.0114761
  moments of inertia/u·Å² :        0.3413222E+03   0.6797621E+03   0.9828594E+03
rotational constants/cm⁻¹ :        0.4938920E-01   0.2479931E-01   0.1715162E-01

 * 24 selected distances

     #   Z          #   Z                                           value/Å
     1   6 C        2   6 C                                       1.3911915
     2   6 C        3   6 C                                       1.4001118
     3   6 C        4   6 C                                       1.4001168
     4   6 C        5   6 C                                       1.3911880
     1   6 C        6   6 C                                       1.3820774
     5   6 C        6   6 C                                       1.3820802
     5   6 C        7   1 H                                       1.0767303 (min)
     6   6 C        8   1 H                                       1.0785175
     4   6 C        9   8 O                                       1.3627019
     9   8 O       10   6 C                                       1.4159636
    10   6 C       11   1 H                                       1.0930879
    10   6 C       12   1 H                                       1.0875699
    10   6 C       13   1 H                                       1.0925805
     1   6 C       14   1 H                                       1.0767308
     2   6 C       15   8 O                                       1.3627001
    15   8 O       16   6 C                                       1.4159608
    16   6 C       17   1 H                                       1.0875702
    16   6 C       18   1 H                                       1.0930887
    16   6 C       19   1 H                                       1.0925784
     3   6 C       20   8 O                                       1.3889722
    20   8 O       21   6 C                                       1.4193247 (max)
    21   6 C       22   1 H                                       1.0941541
    21   6 C       23   1 H                                       1.0871177
    21   6 C       24   1 H                                       1.0941499

 * 3 distinct bonds (by element types)

   Z      Z             #   av. dist./Å        max./Å        min./Å
   1 H    6 C          12     1.0878230     1.0941541     1.0767303
   6 C    6 C           6     1.3911276     1.4001168     1.3820774
   6 C    8 O           6     1.3942706     1.4193247     1.3627001

           -------------------------------------------------
          |               Frequency Printout                |
           -------------------------------------------------
 projected vibrational frequencies (cm⁻¹)
eigval :       -0.00    -0.00    -0.00     0.00     0.00     0.00
eigval :      -35.98    63.07   102.46   109.35   157.26   174.29
eigval :      184.45   215.41   232.34   238.19   269.85   325.58
eigval :      353.92   370.41   463.11   502.41   547.64   579.01
eigval :      601.59   680.37   716.01   780.27   791.40   841.03
eigval :      906.28   909.21  1008.71  1036.86  1093.24  1107.90
eigval :     1113.17  1113.30  1121.35  1129.60  1141.42  1155.92
eigval :     1181.06  1198.37  1228.25  1296.73  1320.22  1384.67
eigval :     1386.65  1389.30  1445.14  1446.30  1457.27  1457.36
eigval :     1457.80  1468.18  1468.89  1471.70  1571.14  1579.42
eigval :     2926.48  2943.82  2946.78  2946.83  2959.52  2959.83
eigval :     3031.36  3035.30  3035.45  3097.47  3120.21  3125.09
 reduced masses (amu)
   1: 11.42   2: 11.50   3: 12.01   4: 11.88   5: 12.33   6: 11.31   7:  8.92   8:  9.19
   9: 10.97  10: 11.17  11:  2.90  12: 10.43  13:  6.41  14: 10.41  15: 11.30  16:  2.83
  17:  5.77  18: 11.01  19: 11.42  20: 11.20  21: 12.29  22: 12.61  23: 10.45  24: 11.52
  25: 10.93  26: 11.83  27: 12.29  28:  5.15  29:  9.43  30:  3.88  31:  3.22  32: 11.28
  33: 12.46  34: 12.86  35: 12.68  36:  9.17  37:  3.68  38:  3.67  39:  3.63  40:  6.63
  41:  5.63  42:  5.44  43:  7.05  44:  1.96  45:  6.16  46: 10.97  47: 11.80  48:  2.48
  49:  2.46  50:  2.65  51:  9.67  52: 10.03  53:  1.55  54:  1.56  55:  1.55  56:  1.64
  57:  1.65  58:  2.30  59: 11.54  60: 11.64  61:  1.95  62:  1.42  63:  1.92  64:  1.92
  65:  1.48  66:  1.48  67:  1.71  68:  1.71  69:  1.71  70:  1.79  71:  1.83  72:  1.87
 IR intensities (km·mol⁻¹)
   1:  0.35   2:  1.35   3:  0.07   4:  0.11   5:  0.10   6:  0.16   7:  5.77   8:  5.22
   9:  0.19  10: 10.10  11:  0.00  12:  2.19  13:  0.00  14:  6.96  15:  2.86  16:  1.61
  17:  0.02  18:  7.98  19:  0.34  20:  4.07  21:  1.90  22: 15.91  23:  0.32  24:  0.02
  25:  4.00  26: 10.44  27: 60.96  28: 36.04  29: 41.16  30:  0.00  31:  0.03  32: 76.11
  33: 89.13  34: 12.18  35:540.77  36: 52.66  37:  4.75  38:  0.56  39:  7.12  40: 46.76
  41: 43.04  42:  7.26  43: 12.64  44:  7.63  45:266.39  46:228.18  47: 33.64  48:  0.92
  49:  0.30  50:  3.61  51:425.58  52:105.85  53:  0.59  54: 15.33  55:  3.42  56:  9.49
  57:  5.62  58:  2.86  59: 37.79  60:155.09  61: 70.02  62: 51.03  63:  5.09  64: 78.09
  65: 50.48  66: 37.13  67: 27.56  68: 20.85  69:  7.82  70: 24.35  71: 40.21  72: 30.08
 Raman intensities (amu)
   1:  0.00   2:  0.00   3:  0.00   4:  0.00   5:  0.00   6:  0.00   7:  0.00   8:  0.00
   9:  0.00  10:  0.00  11:  0.00  12:  0.00  13:  0.00  14:  0.00  15:  0.00  16:  0.00
  17:  0.00  18:  0.00  19:  0.00  20:  0.00  21:  0.00  22:  0.00  23:  0.00  24:  0.00
  25:  0.00  26:  0.00  27:  0.00  28:  0.00  29:  0.00  30:  0.00  31:  0.00  32:  0.00
  33:  0.00  34:  0.00  35:  0.00  36:  0.00  37:  0.00  38:  0.00  39:  0.00  40:  0.00
  41:  0.00  42:  0.00  43:  0.00  44:  0.00  45:  0.00  46:  0.00  47:  0.00  48:  0.00
  49:  0.00  50:  0.00  51:  0.00  52:  0.00  53:  0.00  54:  0.00  55:  0.00  56:  0.00
  57:  0.00  58:  0.00  59:  0.00  60:  0.00  61:  0.00  62:  0.00  63:  0.00  64:  0.00
  65:  0.00  66:  0.00  67:  0.00  68:  0.00  69:  0.00  70:  0.00  71:  0.00  72:  0.00
 output can be read by thermo (or use thermo option).
 writing <g98.out> molden fake output.
 recommended (thermochemical) frequency scaling factor: 1.0
           -------------------------------------------------
          |             Thermodynamic Functions             |
           -------------------------------------------------

Molecule has the following symmetry elements: (sigma) 
It seems to be the Cs point group
cs  symmetry found (for desy threshold:  0.10E+00) used in thermo

          ...................................................
          :                      SETUP                      :
          :.................................................:
          :  # frequencies                          65      :
          :  # imaginary freq.                       1      :
          :  linear?                             false      :
          :  only rotor calc.                    false      :
          :  symmetry                               cs      :
          :  rotational number                       1      :
          :  scaling factor                  1.0000000      :
          :  rotor cutoff                   50.0000000 cm⁻¹ :
          :  imag. cutoff                  -20.0000000 cm⁻¹ :
          :.................................................:

    mode    ω/cm⁻¹     T·S(HO)/kcal·mol⁻¹    T·S(FR)/kcal·mol⁻¹   T·S(vib)
   ------------------------------------------------------------------------
       1     63.07    -1.29957 ( 71.68%)    -0.98764 ( 28.32%)    -1.21124
       2    102.46    -1.01577 ( 94.63%)    -0.84393 (  5.37%)    -1.00655
       3    109.35    -0.97806 ( 95.81%)    -0.82466 (  4.19%)    -0.97163
       4    157.26    -0.76998 ( 98.99%)    -0.71705 (  1.01%)    -0.76945
       5    174.29    -0.71219 ( 99.33%)    -0.68659 (  0.67%)    -0.71202
       6    184.45    -0.68066 ( 99.46%)    -0.66982 (  0.54%)    -0.68060
       7    215.41    -0.59550 ( 99.71%)    -0.62384 (  0.29%)    -0.59558
       8    232.34    -0.55480 ( 99.79%)    -0.60144 (  0.21%)    -0.55490
       9    238.19    -0.54155 ( 99.81%)    -0.59407 (  0.19%)    -0.54165
      10    269.85    -0.47620 ( 99.88%)    -0.55711 (  0.12%)    -0.47629
   ------------------------------------------------------------------------

   temp. (K)  partition function   enthalpy   heat capacity  entropy
                                   cal/mol     cal/K/mol   cal/K/mol   J/K/mol
 298.15  VIB  0.215E+04             5730.277     38.584     34.119
         ROT  0.115E+07              888.752      2.981     30.720
         INT  0.248E+10             6619.029     41.565     64.838
         TR   0.211E+28             1481.254      4.968     41.249
         TOT                        8100.2828    46.5333   106.0875   443.8700

       T/K    H(0)-H(T)+PV         H(T)/Eh          T*S/Eh         G(T)/Eh
   ------------------------------------------------------------------------
    298.15    0.129086E-01    0.203074E+00    0.504056E-01    0.152668E+00
   ------------------------------------------------------------------------

         :::::::::::::::::::::::::::::::::::::::::::::::::::::
         ::                  THERMODYNAMIC                  ::
         :::::::::::::::::::::::::::::::::::::::::::::::::::::
         :: total free energy         -37.419874059421 Eh   ::
         ::.................................................::
         :: total energy              -37.572542513305 Eh   ::
         :: zero point energy           0.190165411043 Eh   ::
         :: G(RRHO) w/o ZPVE           -0.037496957158 Eh   ::
         :: G(RRHO) contrib.            0.152668453885 Eh   ::
         :::::::::::::::::::::::::::::::::::::::::::::::::::::
imag cut-off (cm-1) :    5.00
 found            1  significant imaginary frequency
 writing imag mode distorted coords to xtbhess.xyz
 for further optimization.

optimized geometry written to: xtbopt.xyz


           -------------------------------------------------
          | TOTAL ENERGY              -37.572542513305 Eh   |
          | TOTAL ENTHALPY            -37.369468479969 Eh   |
          | TOTAL FREE ENERGY         -37.419874059421 Eh   |
          | GRADIENT NORM               0.000580345374 Eh/α |
          | HOMO-LUMO GAP               4.238123463756 eV   |
           -------------------------------------------------

------------------------------------------------------------------------
 * finished run on 2021/11/15 at 09:36:22.589     
------------------------------------------------------------------------
 total:
 * wall-time:     0 d,  0 h,  0 min,  1.949 sec
 *  cpu-time:     0 d,  0 h,  0 min,  1.906 sec
 * ratio c/w:     0.978 speedup
 SCF:
 * wall-time:     0 d,  0 h,  0 min,  0.016 sec
 *  cpu-time:     0 d,  0 h,  0 min,  0.016 sec
 * ratio c/w:     0.955 speedup
 ANC optimizer:
 * wall-time:     0 d,  0 h,  0 min,  0.104 sec
 *  cpu-time:     0 d,  0 h,  0 min,  0.094 sec
 * ratio c/w:     0.898 speedup
 analytical hessian:
 * wall-time:     0 d,  0 h,  0 min,  1.783 sec
 *  cpu-time:     0 d,  0 h,  0 min,  1.766 sec
 * ratio c/w:     0.990 speedup

