 Entering Gaussian System
 *********************************************
 Gaussian 98:
 frequency output generated by the xtb code
 *********************************************
                         Standard orientation:
 --------------------------------------------------------------------
  Center     Atomic     Atomic              Coordinates (Angstroms)
  Number     Number      Type              X           Y           Z
 --------------------------------------------------------------------
    1          6             0        1.206149   -1.654294    0.157480
    2          6             0        1.215344   -0.281877   -0.070118
    3          6             0       -0.000002    0.400786   -0.201342
    4          6             0       -1.215215   -0.282130   -0.070154
    5          6             0       -1.205742   -1.654551    0.157387
    6          6             0        0.000272   -2.321118    0.263992
    7          1             0       -2.127385   -2.202943    0.253247
    8          1             0        0.000376   -3.385346    0.438972
    9          8             0       -2.335845    0.486099   -0.174879
   10          6             0       -3.598723   -0.150208   -0.102733
   11          1             0       -3.745210   -0.625096    0.870851
   12          1             0       -4.325386    0.648150   -0.234622
   13          1             0       -3.714137   -0.888919   -0.899425
   14          1             0        2.127904   -2.202471    0.253490
   15          8             0        2.335820    0.486577   -0.174831
   16          6             0        3.598819   -0.149563   -0.103401
   17          1             0        4.325297    0.648864   -0.235884
   18          1             0        3.746007   -0.624282    0.870161
   19          1             0        3.713803   -0.888382   -0.900052
   20          8             0       -0.000129    1.759169   -0.491236
   21          6             0       -0.000695    2.592303    0.657838
   22          1             0        0.894221    2.418170    1.262798
   23          1             0       -0.001040    3.612417    0.282082
   24          1             0       -0.895695    2.417449    1.262458
 --------------------------------------------------------------------
     1 basis functions        1 primitive gaussians
     1 alpha electrons        1 beta electrons
 
 Harmonic frequencies (cm**-1), IR intensities (km*mol⁻¹),
 Raman scattering activities (A**4/amu), Raman depolarization ratios,
 reduced masses (AMU), force constants (mDyne/A) and normal coordinates:
                      1                      2                      3
                        a                      a                      a 
 Frequencies --   -35.9778                63.0686               102.4628
 Red. masses --     8.9157                 9.1934                10.9669
 Frc consts  --     0.0000                 0.0000                 0.0000
 IR Inten    --     5.7707                 5.2209                 0.1891
 Raman Activ --     0.0000                 0.0000                 0.0000
 Depolar     --     0.0000                 0.0000                 0.0000
 Atom AN      X      Y      Z        X      Y      Z        X      Y      Z
   1   6     0.02  -0.05  -0.04     0.00   0.03   0.16    -0.00   0.03   0.21
   2   6     0.07  -0.05  -0.04     0.00   0.02   0.10     0.00   0.02   0.20
   3   6     0.09   0.00   0.00     0.00   0.02   0.13     0.01  -0.00   0.00
   4   6     0.07   0.05   0.04    -0.00   0.02   0.10     0.00  -0.02  -0.19
   5   6     0.02   0.05   0.04    -0.00   0.03   0.16    -0.00  -0.03  -0.21
   6   6    -0.00  -0.00  -0.00    -0.00   0.04   0.23    -0.01  -0.00  -0.00
   7   1     0.00   0.03   0.02    -0.00   0.01   0.05    -0.00  -0.02  -0.11
   8   1    -0.01  -0.00  -0.00    -0.00   0.01   0.09    -0.00  -0.00  -0.00
   9   8     0.10   0.10   0.07    -0.00  -0.00  -0.03     0.01  -0.05  -0.43
  10   6     0.07   0.12   0.05     0.00  -0.07  -0.50     0.00   0.04   0.33
  11   1     0.01   0.04   0.01    -0.10  -0.03  -0.16     0.13   0.06   0.14
  12   1     0.03   0.04   0.01     0.00  -0.03  -0.22    -0.00   0.02   0.16
  13   1     0.02   0.04   0.01     0.10  -0.02  -0.16    -0.13  -0.02   0.15
  14   1     0.00  -0.03  -0.02     0.00   0.01   0.05    -0.00   0.02   0.11
  15   8     0.10  -0.10  -0.07     0.00  -0.00  -0.02     0.01   0.05   0.44
  16   6     0.07  -0.12  -0.05    -0.00  -0.07  -0.50    -0.00  -0.04  -0.33
  17   1     0.03  -0.04  -0.01    -0.00  -0.03  -0.22    -0.00  -0.02  -0.16
  18   1     0.01  -0.04  -0.01     0.10  -0.03  -0.16     0.13  -0.06  -0.14
  19   1     0.02  -0.04  -0.01    -0.10  -0.02  -0.16    -0.13   0.03  -0.15
  20   8     0.24   0.00   0.00     0.00   0.03   0.18     0.03  -0.00  -0.00
  21   6    -0.70   0.00  -0.00    -0.00  -0.02   0.19    -0.04   0.00  -0.01
  22   1    -0.33   0.02   0.19    -0.00  -0.01   0.05    -0.02  -0.00   0.02
  23   1    -0.15  -0.00  -0.00     0.00  -0.00   0.07     0.00   0.00  -0.00
  24   1    -0.33  -0.02  -0.19    -0.00  -0.01   0.05    -0.02   0.01  -0.02
                      4                      5                      6
                        a                      a                      a 
 Frequencies --   109.3501               157.2556               174.2912
 Red. masses --    11.1695                 2.9027                10.4255
 Frc consts  --     0.0000                 0.0000                 0.0000
 IR Inten    --    10.1025                 0.0041                 2.1884
 Raman Activ --     0.0000                 0.0000                 0.0000
 Depolar     --     0.0000                 0.0000                 0.0000
 Atom AN      X      Y      Z        X      Y      Z        X      Y      Z
   1   6    -0.00  -0.05  -0.09     0.01   0.02   0.03    -0.03   0.11  -0.04
   2   6    -0.00  -0.01   0.16     0.04   0.02   0.01    -0.01   0.11  -0.01
   3   6    -0.00  -0.00   0.15     0.03  -0.00  -0.00    -0.00   0.19   0.10
   4   6     0.00  -0.01   0.16     0.04  -0.02  -0.01     0.01   0.11  -0.01
   5   6     0.00  -0.05  -0.09     0.01  -0.02  -0.03     0.03   0.10  -0.04
   6   6     0.00  -0.08  -0.27     0.02  -0.00  -0.00     0.00   0.08  -0.03
   7   1     0.00  -0.02  -0.05     0.00  -0.00  -0.02     0.01   0.03  -0.03
   8   1     0.00  -0.04  -0.15     0.01  -0.00  -0.00     0.00   0.02  -0.01
   9   8    -0.00   0.02   0.43     0.09   0.04  -0.00    -0.15  -0.12  -0.14
  10   6     0.00  -0.05  -0.11     0.04   0.13  -0.01     0.03  -0.43   0.08
  11   1    -0.06  -0.11  -0.09     0.01   0.03  -0.01     0.07  -0.10   0.05
  12   1     0.00  -0.01  -0.00     0.03   0.06   0.01    -0.06  -0.19   0.01
  13   1     0.06   0.06  -0.11    -0.01   0.05  -0.01     0.04  -0.16   0.05
  14   1    -0.00  -0.02  -0.05     0.00   0.00   0.02    -0.01   0.03  -0.03
  15   8     0.00   0.01   0.41     0.09  -0.04   0.01     0.15  -0.12  -0.14
  16   6    -0.00  -0.05  -0.11     0.04  -0.13   0.01    -0.03  -0.43   0.08
  17   1    -0.00  -0.01   0.00     0.03  -0.06  -0.01     0.06  -0.19   0.01
  18   1     0.05  -0.11  -0.08     0.01  -0.03   0.01    -0.07  -0.10   0.05
  19   1    -0.06   0.06  -0.11    -0.01  -0.05   0.01    -0.04  -0.16   0.05
  20   8    -0.00  -0.07  -0.11    -0.22  -0.00  -0.00    -0.00   0.23   0.12
  21   6     0.00   0.30  -0.36    -0.17  -0.00  -0.00    -0.00   0.32   0.02
  22   1     0.00   0.14  -0.09     0.21   0.36  -0.27     0.00   0.12   0.01
  23   1     0.00   0.05  -0.20    -0.58  -0.00  -0.00    -0.00   0.08  -0.03
  24   1    -0.00   0.14  -0.09     0.21  -0.36   0.27    -0.00   0.12   0.01
                      7                      8                      9
                        a                      a                      a 
 Frequencies --   184.4450               215.4124               232.3381
 Red. masses --     6.4070                10.4147                11.3014
 Frc consts  --     0.0000                 0.0000                 0.0000
 IR Inten    --     0.0010                 6.9579                 2.8575
 Raman Activ --     0.0000                 0.0000                 0.0000
 Depolar     --     0.0000                 0.0000                 0.0000
 Atom AN      X      Y      Z        X      Y      Z        X      Y      Z
   1   6     0.00   0.07   0.38     0.01  -0.13  -0.04     0.09   0.14  -0.02
   2   6     0.00   0.02   0.08     0.00  -0.11   0.10     0.04   0.15  -0.02
   3   6    -0.00  -0.00  -0.00    -0.00  -0.06   0.39    -0.04  -0.00   0.00
   4   6     0.00  -0.02  -0.08    -0.00  -0.11   0.10     0.04  -0.15   0.02
   5   6     0.00  -0.07  -0.38    -0.01  -0.13  -0.04     0.09  -0.14   0.02
   6   6     0.01  -0.00  -0.00    -0.00  -0.14  -0.08     0.17  -0.00   0.00
   7   1     0.00  -0.04  -0.21    -0.01  -0.04  -0.06     0.03  -0.05   0.01
   8   1     0.00  -0.00  -0.00    -0.00  -0.05  -0.07     0.09  -0.00   0.00
   9   8     0.00   0.03   0.26     0.09  -0.06  -0.29     0.16  -0.03  -0.01
  10   6    -0.00   0.01  -0.01    -0.03   0.19   0.00     0.00   0.28  -0.03
  11   1     0.06  -0.25  -0.12    -0.03   0.19   0.06    -0.05   0.11  -0.00
  12   1    -0.00   0.05   0.26     0.03   0.07  -0.11     0.06   0.13  -0.04
  13   1    -0.06   0.21  -0.19    -0.04  -0.05   0.10    -0.04   0.07   0.01
  14   1     0.00   0.04   0.21     0.01  -0.04  -0.06     0.03   0.05  -0.01
  15   8     0.00  -0.03  -0.26    -0.09  -0.06  -0.29     0.16   0.03   0.01
  16   6    -0.00  -0.01   0.01     0.03   0.19   0.00     0.00  -0.28   0.03
  17   1    -0.00  -0.05  -0.26    -0.03   0.07  -0.11     0.06  -0.13   0.04
  18   1     0.06   0.25   0.12     0.03   0.19   0.06    -0.05  -0.11   0.00
  19   1    -0.06  -0.21   0.19     0.04  -0.05   0.10    -0.04  -0.07  -0.01
  20   8    -0.01  -0.00  -0.00     0.00  -0.10   0.30    -0.64  -0.00   0.00
  21   6    -0.01  -0.00  -0.00     0.00   0.34  -0.05    -0.06   0.00  -0.00
  22   1    -0.02  -0.03   0.02     0.00   0.18   0.01    -0.07  -0.19   0.03
  23   1     0.04  -0.00   0.00    -0.00   0.05  -0.14     0.21   0.00  -0.00
  24   1    -0.02   0.03  -0.02    -0.00   0.18   0.01    -0.07   0.19  -0.03
                     10                     11                     12
                        a                      a                      a 
 Frequencies --   238.1906               269.8499               325.5806
 Red. masses --     2.8265                 5.7718                11.0132
 Frc consts  --     0.0000                 0.0000                 0.0000
 IR Inten    --     1.6090                 0.0209                 7.9757
 Raman Activ --     0.0000                 0.0000                 0.0000
 Depolar     --     0.0000                 0.0000                 0.0000
 Atom AN      X      Y      Z        X      Y      Z        X      Y      Z
   1   6     0.00  -0.03   0.04    -0.01   0.05   0.36    -0.22  -0.09   0.02
   2   6    -0.00  -0.03  -0.01    -0.00   0.00   0.06     0.04  -0.08   0.00
   3   6     0.00  -0.01   0.12     0.00  -0.00   0.00     0.06   0.00   0.00
   4   6     0.00  -0.03  -0.01    -0.00  -0.00  -0.06     0.04   0.08  -0.00
   5   6    -0.00  -0.03   0.04    -0.01  -0.05  -0.36    -0.22   0.09  -0.02
   6   6    -0.00  -0.01   0.16    -0.01  -0.00  -0.00    -0.28  -0.00   0.00
   7   1    -0.00  -0.01  -0.03    -0.00  -0.03  -0.18    -0.07   0.05  -0.01
   8   1    -0.00   0.00   0.06    -0.00  -0.00  -0.00    -0.10  -0.00   0.00
   9   8     0.02  -0.04  -0.17    -0.00   0.03   0.23     0.14   0.19  -0.02
  10   6    -0.01   0.03  -0.03     0.00  -0.00   0.04     0.33  -0.20   0.03
  11   1     0.15  -0.30  -0.14    -0.13   0.24   0.11     0.16  -0.07   0.01
  12   1    -0.00   0.07   0.38     0.00  -0.05  -0.30     0.01  -0.13   0.02
  13   1    -0.16   0.26  -0.22     0.13  -0.20   0.18     0.16  -0.07   0.01
  14   1     0.00  -0.01  -0.03    -0.00   0.03   0.18    -0.07  -0.05   0.01
  15   8    -0.02  -0.04  -0.17    -0.00  -0.03  -0.23     0.14  -0.19   0.02
  16   6     0.01   0.03  -0.03     0.00   0.00  -0.04     0.33   0.20  -0.03
  17   1     0.00   0.07   0.38     0.00   0.05   0.30     0.01   0.13  -0.02
  18   1    -0.15  -0.29  -0.14    -0.13  -0.24  -0.11     0.16   0.07  -0.01
  19   1     0.16   0.26  -0.22     0.13   0.20  -0.18     0.16   0.07  -0.01
  20   8     0.00  -0.01   0.11     0.03  -0.00  -0.00    -0.42   0.00   0.00
  21   6     0.00   0.12  -0.00    -0.00  -0.00  -0.00    -0.05   0.00   0.00
  22   1     0.00   0.06   0.01     0.00   0.01   0.00    -0.02  -0.07  -0.02
  23   1    -0.00   0.02  -0.04    -0.01  -0.00  -0.00     0.06   0.00  -0.00
  24   1     0.00   0.06   0.01     0.00  -0.01  -0.00    -0.02   0.07   0.02
                     13                     14                     15
                        a                      a                      a 
 Frequencies --   353.9230               370.4146               463.1093
 Red. masses --    11.4191                11.2049                12.2877
 Frc consts  --     0.0000                 0.0000                 0.0000
 IR Inten    --     0.3443                 4.0693                 1.8987
 Raman Activ --     0.0000                 0.0000                 0.0000
 Depolar     --     0.0000                 0.0000                 0.0000
 Atom AN      X      Y      Z        X      Y      Z        X      Y      Z
   1   6    -0.02  -0.02   0.02    -0.04  -0.11  -0.12     0.14   0.03  -0.20
   2   6    -0.11  -0.02   0.04    -0.07  -0.13  -0.36     0.18   0.02  -0.14
   3   6     0.00  -0.00   0.03    -0.00   0.02  -0.28    -0.00  -0.25   0.22
   4   6     0.11  -0.02   0.04     0.07  -0.13  -0.36    -0.18   0.02  -0.14
   5   6     0.02  -0.02   0.02     0.04  -0.11  -0.12    -0.14   0.03  -0.20
   6   6    -0.00  -0.06  -0.02     0.00  -0.10   0.33    -0.00   0.31   0.22
   7   1     0.01  -0.01  -0.00    -0.00   0.00   0.04    -0.00  -0.05  -0.05
   8   1    -0.00  -0.02  -0.02     0.00  -0.00   0.27     0.00   0.11   0.17
   9   8     0.35   0.18  -0.05     0.10  -0.08   0.21    -0.12   0.26   0.04
  10   6     0.48  -0.06   0.01     0.04   0.04   0.01     0.01  -0.05   0.02
  11   1     0.19  -0.03   0.00    -0.05   0.03   0.00     0.04  -0.02   0.01
  12   1     0.07  -0.08   0.02     0.04   0.03  -0.04    -0.06  -0.08  -0.01
  13   1     0.18  -0.03   0.00     0.03   0.00   0.01     0.07  -0.04   0.01
  14   1    -0.01  -0.01  -0.00     0.00   0.00   0.04     0.00  -0.05  -0.05
  15   8    -0.35   0.18  -0.05    -0.10  -0.08   0.21     0.12   0.26   0.04
  16   6    -0.48  -0.06   0.01    -0.04   0.04   0.01    -0.01  -0.05   0.02
  17   1    -0.07  -0.08   0.02    -0.04   0.03  -0.04     0.06  -0.08  -0.01
  18   1    -0.19  -0.03   0.00     0.05   0.03   0.00    -0.04  -0.02   0.01
  19   1    -0.18  -0.03   0.00    -0.03   0.00   0.01    -0.07  -0.04   0.01
  20   8     0.00  -0.03  -0.01     0.00   0.17   0.20     0.00  -0.42   0.20
  21   6    -0.00  -0.03  -0.01    -0.00   0.33   0.08     0.00  -0.08  -0.09
  22   1    -0.00  -0.01  -0.00     0.00   0.13   0.03     0.00   0.04  -0.01
  23   1     0.00  -0.01   0.00     0.00   0.07  -0.05     0.00  -0.06  -0.13
  24   1     0.00  -0.01  -0.00    -0.00   0.13   0.03    -0.00   0.04  -0.01
                     16                     17                     18
                        a                      a                      a 
 Frequencies --   502.4093               547.6441               579.0090
 Red. masses --    12.6066                10.4548                11.5160
 Frc consts  --     0.0000                 0.0000                 0.0000
 IR Inten    --    15.9116                 0.3175                 0.0248
 Raman Activ --     0.0000                 0.0000                 0.0000
 Depolar     --     0.0000                 0.0000                 0.0000
 Atom AN      X      Y      Z        X      Y      Z        X      Y      Z
   1   6     0.36  -0.24   0.05    -0.08  -0.03  -0.34     0.01  -0.06  -0.14
   2   6    -0.08  -0.26   0.02    -0.10   0.05   0.13     0.02   0.08   0.64
   3   6    -0.01  -0.00   0.00     0.00   0.22   0.36     0.03   0.00   0.00
   4   6    -0.08   0.26  -0.02     0.10   0.05   0.13     0.02  -0.08  -0.64
   5   6     0.36   0.24  -0.05     0.08  -0.03  -0.34     0.01   0.06   0.14
   6   6     0.26   0.00   0.00    -0.00  -0.02   0.42    -0.01  -0.00   0.00
   7   1     0.12   0.03  -0.01     0.00   0.00  -0.23    -0.00   0.05   0.17
   8   1    -0.03   0.00   0.00    -0.00   0.00   0.17    -0.02  -0.00   0.00
   9   8    -0.20   0.31  -0.05     0.05  -0.11   0.03    -0.00   0.01   0.17
  10   6    -0.06  -0.01  -0.00    -0.00   0.01   0.01    -0.01  -0.00   0.02
  11   1     0.03  -0.01   0.00    -0.03   0.03   0.01    -0.03  -0.01  -0.00
  12   1    -0.08  -0.06   0.01     0.03   0.03  -0.02     0.00   0.00  -0.01
  13   1     0.04  -0.01   0.00    -0.02  -0.00   0.01     0.02   0.00  -0.00
  14   1     0.12  -0.03   0.01    -0.00   0.00  -0.23    -0.00  -0.05  -0.17
  15   8    -0.20  -0.31   0.05    -0.05  -0.11   0.03    -0.00  -0.01  -0.17
  16   6    -0.06   0.01   0.00     0.00   0.01   0.01    -0.01   0.00  -0.02
  17   1    -0.08   0.06  -0.01    -0.03   0.03  -0.02     0.00  -0.00   0.01
  18   1     0.03   0.01  -0.00     0.03   0.03   0.01    -0.03   0.01   0.00
  19   1     0.04   0.01  -0.00     0.02  -0.00   0.01     0.02  -0.00   0.00
  20   8    -0.23  -0.00  -0.00    -0.00   0.15  -0.26    -0.03   0.00  -0.00
  21   6    -0.03  -0.00   0.00     0.00  -0.15  -0.07    -0.00   0.00   0.00
  22   1    -0.00  -0.03  -0.02    -0.00  -0.12  -0.04    -0.00  -0.00  -0.00
  23   1     0.02   0.00   0.00    -0.00   0.00   0.11     0.00   0.00   0.00
  24   1    -0.00   0.03   0.02     0.00  -0.12  -0.04    -0.00   0.00   0.00
                     19                     20                     21
                        a                      a                      a 
 Frequencies --   601.5906               680.3706               716.0074
 Red. masses --    10.9313                11.8294                12.2875
 Frc consts  --     0.0000                 0.0000                 0.0000
 IR Inten    --     4.0042                10.4364                60.9552
 Raman Activ --     0.0000                 0.0000                 0.0000
 Depolar     --     0.0000                 0.0000                 0.0000
 Atom AN      X      Y      Z        X      Y      Z        X      Y      Z
   1   6    -0.02   0.28  -0.06     0.05  -0.12  -0.20    -0.09  -0.20   0.07
   2   6    -0.27   0.19   0.03     0.06   0.03   0.42     0.09  -0.03  -0.08
   3   6    -0.34   0.00   0.00    -0.00  -0.16  -0.60    -0.00   0.07   0.15
   4   6    -0.27  -0.19  -0.03    -0.06   0.03   0.42    -0.09  -0.03  -0.08
   5   6    -0.02  -0.28   0.06    -0.05  -0.12  -0.20     0.09  -0.20   0.07
   6   6     0.20  -0.00   0.00    -0.00  -0.03   0.20     0.00  -0.55   0.06
   7   1     0.05  -0.17   0.04    -0.00  -0.05  -0.05     0.01  -0.05  -0.00
   8   1     0.15   0.00   0.00     0.00  -0.02  -0.01     0.00  -0.16   0.02
   9   8    -0.02   0.30  -0.03    -0.05   0.10  -0.08    -0.19   0.37  -0.04
  10   6     0.17   0.05  -0.01    -0.01  -0.00  -0.01    -0.08   0.01  -0.00
  11   1     0.12  -0.01  -0.00     0.03  -0.00   0.00     0.06  -0.02   0.00
  12   1    -0.05  -0.08   0.01    -0.04  -0.03   0.01    -0.13  -0.10   0.01
  13   1     0.13  -0.01   0.01     0.01  -0.01   0.00     0.07  -0.02   0.01
  14   1     0.05   0.17  -0.04     0.00  -0.05  -0.05    -0.01  -0.05  -0.00
  15   8    -0.02  -0.30   0.03     0.05   0.10  -0.08     0.19   0.37  -0.04
  16   6     0.17  -0.05   0.01     0.01  -0.00  -0.01     0.08   0.01  -0.00
  17   1    -0.05   0.08  -0.01     0.04  -0.03   0.01     0.13  -0.10   0.01
  18   1     0.12   0.01   0.00    -0.03  -0.00   0.00    -0.06  -0.02   0.00
  19   1     0.13   0.01  -0.01    -0.01  -0.01   0.00    -0.07  -0.02   0.01
  20   8     0.20   0.00  -0.00     0.00   0.03   0.07     0.00   0.18  -0.13
  21   6     0.02  -0.00  -0.00    -0.00   0.12   0.09    -0.00   0.03   0.01
  22   1     0.00   0.03   0.02     0.00   0.07   0.03    -0.00  -0.04  -0.01
  23   1    -0.02  -0.00   0.00     0.00   0.01  -0.04    -0.00   0.04   0.09
  24   1     0.00  -0.03  -0.02    -0.00   0.07   0.03     0.00  -0.04  -0.01
                     22                     23                     24
                        a                      a                      a 
 Frequencies --   780.2687               791.3959               841.0339
 Red. masses --     5.1535                 9.4339                 3.8780
 Frc consts  --     0.0000                 0.0000                 0.0000
 IR Inten    --    36.0375                41.1590                 0.0015
 Raman Activ --     0.0000                 0.0000                 0.0000
 Depolar     --     0.0000                 0.0000                 0.0000
 Atom AN      X      Y      Z        X      Y      Z        X      Y      Z
   1   6     0.19  -0.08   0.22     0.32  -0.21  -0.07     0.00  -0.06  -0.35
   2   6     0.07  -0.10  -0.10     0.12  -0.14   0.06    -0.00   0.01   0.08
   3   6     0.00  -0.06  -0.05     0.00  -0.03   0.17    -0.00   0.00   0.00
   4   6    -0.07  -0.10  -0.10    -0.12  -0.14   0.06    -0.00  -0.01  -0.08
   5   6    -0.19  -0.08   0.22    -0.32  -0.21  -0.07     0.00   0.06   0.35
   6   6    -0.00   0.22   0.14    -0.00   0.28  -0.16    -0.00  -0.00  -0.00
   7   1    -0.02  -0.17  -0.47    -0.03  -0.11   0.29    -0.00  -0.10  -0.60
   8   1     0.00  -0.01  -0.36    -0.00   0.11   0.20    -0.00   0.00   0.00
   9   8     0.01  -0.01   0.04     0.02  -0.01  -0.01     0.00   0.00   0.02
  10   6     0.02   0.01   0.00     0.03   0.01  -0.00     0.00  -0.00  -0.00
  11   1     0.01   0.01   0.01     0.02  -0.01  -0.00     0.00   0.01   0.00
  12   1    -0.00  -0.01  -0.02    -0.00  -0.01   0.01     0.00  -0.00  -0.02
  13   1     0.01  -0.01   0.01     0.02   0.00  -0.00    -0.00  -0.01   0.01
  14   1     0.02  -0.17  -0.47     0.03  -0.11   0.29    -0.00   0.10   0.60
  15   8    -0.01  -0.01   0.04    -0.02  -0.01  -0.01     0.00  -0.00  -0.02
  16   6    -0.02   0.01   0.00    -0.03   0.01  -0.00     0.00   0.00   0.00
  17   1     0.00  -0.01  -0.02     0.00  -0.01   0.01     0.00   0.00   0.02
  18   1    -0.01   0.01   0.01    -0.02  -0.01  -0.00     0.00  -0.01  -0.00
  19   1    -0.01  -0.01   0.01    -0.02   0.00  -0.00    -0.00   0.01  -0.01
  20   8     0.00   0.17  -0.11     0.00   0.33  -0.25    -0.00  -0.00   0.00
  21   6    -0.00   0.09   0.07    -0.00   0.12   0.06    -0.00  -0.00  -0.00
  22   1    -0.00  -0.01   0.01    -0.00  -0.06  -0.01     0.00  -0.00  -0.00
  23   1    -0.00   0.05   0.08    -0.00   0.09   0.18     0.00   0.00   0.00
  24   1     0.00  -0.01   0.01     0.00  -0.06  -0.01     0.00   0.00   0.00
                     25                     26                     27
                        a                      a                      a 
 Frequencies --   906.2788               909.2108              1008.7055
 Red. masses --     3.2215                11.2838                12.4624
 Frc consts  --     0.0000                 0.0000                 0.0000
 IR Inten    --     0.0283                76.1070                89.1254
 Raman Activ --     0.0000                 0.0000                 0.0000
 Depolar     --     0.0000                 0.0000                 0.0000
 Atom AN      X      Y      Z        X      Y      Z        X      Y      Z
   1   6     0.00  -0.02  -0.14     0.11  -0.22   0.04     0.15  -0.11   0.03
   2   6     0.00  -0.01  -0.07    -0.30  -0.06   0.00    -0.09  -0.02   0.01
   3   6    -0.00   0.01   0.07    -0.38  -0.00  -0.00    -0.00   0.22  -0.05
   4   6    -0.00  -0.01  -0.07    -0.30   0.06  -0.00     0.09  -0.02   0.01
   5   6    -0.00  -0.02  -0.14     0.11   0.22  -0.04    -0.15  -0.11   0.03
   6   6    -0.00   0.06   0.38    -0.04  -0.00  -0.00    -0.00   0.04  -0.01
   7   1     0.00   0.05   0.31     0.04   0.05  -0.01    -0.04  -0.03  -0.00
   8   1    -0.00  -0.13  -0.77    -0.19   0.00   0.00    -0.00   0.01  -0.01
   9   8    -0.00   0.00   0.00     0.01  -0.30   0.04     0.07   0.05  -0.01
  10   6     0.00   0.00   0.00     0.32   0.08  -0.01    -0.09  -0.02   0.00
  11   1    -0.01  -0.01  -0.00    -0.00   0.03  -0.01     0.00  -0.01   0.00
  12   1    -0.00   0.00   0.01     0.18   0.10  -0.01    -0.05  -0.03   0.00
  13   1     0.01   0.00  -0.00    -0.00   0.03  -0.00     0.01  -0.01  -0.00
  14   1    -0.00   0.05   0.31     0.04  -0.05   0.01     0.04  -0.03  -0.00
  15   8     0.00   0.00   0.00     0.01   0.30  -0.04    -0.07   0.05  -0.01
  16   6     0.00   0.00   0.00     0.32  -0.08   0.01     0.09  -0.02   0.00
  17   1     0.00   0.00   0.01     0.18  -0.10   0.01     0.05  -0.03   0.00
  18   1     0.01  -0.01  -0.00    -0.00  -0.03   0.01    -0.00  -0.01   0.00
  19   1    -0.01   0.00  -0.00    -0.00  -0.03   0.00    -0.01  -0.01  -0.00
  20   8     0.00   0.01  -0.00     0.04   0.00   0.00    -0.00   0.39   0.45
  21   6     0.00  -0.00  -0.01     0.00   0.00  -0.00     0.00  -0.44  -0.43
  22   1    -0.00  -0.01  -0.00     0.00   0.00   0.00    -0.00   0.03  -0.04
  23   1    -0.00   0.00   0.01    -0.00   0.00   0.00     0.00  -0.15  -0.23
  24   1     0.00  -0.01  -0.00     0.00  -0.00  -0.00     0.00   0.03  -0.04
                     28                     29                     30
                        a                      a                      a 
 Frequencies --  1036.8552              1093.2418              1107.8955
 Red. masses --    12.8596                12.6750                 9.1707
 Frc consts  --     0.0000                 0.0000                 0.0000
 IR Inten    --    12.1823               540.7724                52.6606
 Raman Activ --     0.0000                 0.0000                 0.0000
 Depolar     --     0.0000                 0.0000                 0.0000
 Atom AN      X      Y      Z        X      Y      Z        X      Y      Z
   1   6    -0.03   0.01   0.00     0.06  -0.12   0.02     0.36  -0.10   0.02
   2   6     0.21   0.06  -0.01    -0.16   0.08  -0.02    -0.18   0.04  -0.01
   3   6    -0.00  -0.04  -0.00    -0.21   0.00  -0.00    -0.00   0.35  -0.03
   4   6    -0.21   0.06  -0.01    -0.16  -0.08   0.02     0.18   0.04  -0.01
   5   6     0.03   0.01   0.00     0.06   0.12  -0.02    -0.36  -0.10   0.02
   6   6     0.00  -0.10   0.02    -0.03   0.00  -0.00     0.00  -0.15   0.02
   7   1     0.03  -0.04   0.01     0.04  -0.01   0.00    -0.24   0.21  -0.03
   8   1    -0.00  -0.03   0.00    -0.27  -0.00  -0.00     0.00  -0.05   0.01
   9   8    -0.39  -0.18   0.02     0.50   0.04   0.00    -0.15   0.05  -0.01
  10   6     0.41   0.14  -0.01    -0.33  -0.10   0.00     0.10  -0.04   0.01
  11   1     0.00   0.03  -0.01     0.04  -0.03   0.01    -0.08   0.02   0.01
  12   1     0.15   0.08  -0.01    -0.12  -0.06   0.01     0.09   0.05  -0.01
  13   1     0.01   0.04  -0.00     0.03  -0.03   0.01    -0.06   0.02  -0.02
  14   1    -0.03  -0.04   0.01     0.04   0.01  -0.00     0.24   0.21  -0.03
  15   8     0.39  -0.18   0.02     0.50  -0.04  -0.00     0.15   0.05  -0.01
  16   6    -0.41   0.14  -0.01    -0.33   0.10  -0.00    -0.10  -0.04   0.01
  17   1    -0.15   0.08  -0.01    -0.11   0.06  -0.01    -0.09   0.05  -0.01
  18   1    -0.00   0.03  -0.01     0.04   0.03  -0.01     0.08   0.02   0.01
  19   1    -0.01   0.04  -0.00     0.02   0.03  -0.01     0.06   0.02  -0.02
  20   8    -0.00   0.17   0.12     0.03  -0.00  -0.00     0.00  -0.26  -0.13
  21   6     0.00  -0.11  -0.14    -0.00   0.00   0.00    -0.00  -0.00   0.21
  22   1    -0.00   0.00  -0.01     0.00  -0.00  -0.00     0.02   0.08   0.04
  23   1     0.00  -0.02  -0.03    -0.00  -0.00   0.00     0.00  -0.09  -0.17
  24   1     0.00   0.00  -0.01     0.00   0.00   0.00    -0.02   0.08   0.04
                     31                     32                     33
                        a                      a                      a 
 Frequencies --  1113.1745              1113.2985              1121.3482
 Red. masses --     3.6769                 3.6726                 3.6277
 Frc consts  --     0.0000                 0.0000                 0.0000
 IR Inten    --     4.7548                 0.5640                 7.1169
 Raman Activ --     0.0000                 0.0000                 0.0000
 Depolar     --     0.0000                 0.0000                 0.0000
 Atom AN      X      Y      Z        X      Y      Z        X      Y      Z
   1   6    -0.01   0.00   0.00     0.00  -0.00  -0.00     0.01  -0.01  -0.00
   2   6     0.00  -0.00   0.00    -0.00   0.00   0.00     0.01   0.01  -0.00
   3   6     0.00  -0.02   0.00    -0.00  -0.00   0.00    -0.00  -0.00  -0.00
   4   6    -0.00  -0.00   0.00    -0.00  -0.01  -0.00     0.01  -0.01   0.00
   5   6     0.01   0.00  -0.00     0.00   0.00   0.00     0.01   0.01   0.00
   6   6    -0.00   0.00  -0.00     0.00  -0.00  -0.00    -0.00  -0.00   0.00
   7   1     0.00  -0.00  -0.01    -0.00   0.00  -0.01    -0.00   0.01  -0.00
   8   1     0.00   0.00   0.01    -0.01   0.00   0.00    -0.03  -0.00   0.00
   9   8     0.01  -0.02  -0.14     0.01  -0.02  -0.16    -0.01  -0.01  -0.01
  10   6    -0.01   0.03   0.28    -0.01   0.04   0.31    -0.00   0.02   0.01
  11   1    -0.34  -0.20  -0.09    -0.38  -0.23  -0.10    -0.00  -0.01  -0.00
  12   1     0.01  -0.02  -0.15     0.00  -0.02  -0.17    -0.02  -0.01  -0.00
  13   1     0.33   0.17  -0.13     0.38   0.19  -0.15     0.02   0.01  -0.00
  14   1    -0.00   0.00  -0.02    -0.00  -0.00   0.01    -0.00  -0.01   0.00
  15   8    -0.01  -0.02  -0.16     0.01   0.02   0.14    -0.01   0.01   0.01
  16   6     0.01   0.04   0.31    -0.01  -0.04  -0.28    -0.00  -0.02  -0.01
  17   1    -0.01  -0.02  -0.17     0.00   0.02   0.15    -0.02   0.01   0.00
  18   1     0.38  -0.22  -0.10    -0.33   0.20   0.09    -0.00   0.01   0.00
  19   1    -0.38   0.19  -0.15     0.34  -0.17   0.13     0.02  -0.01   0.00
  20   8    -0.00   0.01   0.00     0.01   0.00  -0.00    -0.22  -0.00  -0.00
  21   6     0.00   0.00  -0.01    -0.01   0.00  -0.00     0.41   0.00   0.00
  22   1    -0.00  -0.00   0.00     0.01  -0.01  -0.02    -0.17   0.31   0.48
  23   1    -0.00   0.00   0.01     0.01   0.00   0.00    -0.23  -0.00  -0.00
  24   1     0.00  -0.00  -0.00     0.01   0.01   0.02    -0.17  -0.31  -0.48
                     34                     35                     36
                        a                      a                      a 
 Frequencies --  1129.5955              1141.4171              1155.9229
 Red. masses --     6.6310                 5.6322                 5.4423
 Frc consts  --     0.0000                 0.0000                 0.0000
 IR Inten    --    46.7559                43.0375                 7.2606
 Raman Activ --     0.0000                 0.0000                 0.0000
 Depolar     --     0.0000                 0.0000                 0.0000
 Atom AN      X      Y      Z        X      Y      Z        X      Y      Z
   1   6    -0.08  -0.06   0.01    -0.02   0.06  -0.01    -0.11  -0.02  -0.00
   2   6    -0.12  -0.07   0.01    -0.05  -0.10   0.02     0.09   0.03  -0.01
   3   6    -0.00   0.32  -0.01    -0.09  -0.00  -0.00     0.00  -0.05   0.08
   4   6     0.12  -0.07   0.01    -0.05   0.10  -0.02    -0.09   0.03  -0.01
   5   6     0.08  -0.06   0.01    -0.02  -0.05   0.01     0.11  -0.02  -0.00
   6   6     0.00   0.17  -0.03     0.03  -0.00   0.00     0.00   0.03  -0.00
   7   1     0.12  -0.17   0.03    -0.00  -0.02   0.00     0.14  -0.18   0.04
   8   1     0.00   0.05  -0.01     0.18  -0.00   0.00     0.00   0.01   0.00
   9   8    -0.11  -0.15   0.02     0.11   0.23  -0.03     0.06   0.12  -0.01
  10   6     0.00   0.25  -0.03    -0.00  -0.32   0.05    -0.01  -0.16   0.02
  11   1     0.18  -0.04  -0.02    -0.24   0.04   0.02    -0.12   0.01   0.01
  12   1    -0.25  -0.17   0.02     0.34   0.23  -0.03     0.19   0.13  -0.02
  13   1     0.19  -0.02   0.03    -0.25   0.03  -0.04    -0.12   0.01  -0.02
  14   1    -0.12  -0.17   0.03    -0.00   0.02  -0.00    -0.14  -0.18   0.04
  15   8     0.11  -0.15   0.02     0.11  -0.23   0.03    -0.06   0.12  -0.01
  16   6    -0.00   0.25  -0.03    -0.00   0.32  -0.05     0.01  -0.16   0.02
  17   1     0.25  -0.17   0.02     0.34  -0.23   0.03    -0.19   0.13  -0.02
  18   1    -0.18  -0.04  -0.02    -0.24  -0.04  -0.02     0.12   0.01   0.01
  19   1    -0.19  -0.02   0.03    -0.25  -0.03   0.04     0.12   0.01  -0.02
  20   8    -0.00  -0.13  -0.14    -0.01   0.00   0.00     0.00   0.18  -0.25
  21   6     0.00  -0.07   0.21     0.02   0.00  -0.00    -0.00  -0.19   0.28
  22   1     0.02   0.12   0.04    -0.01   0.02   0.03     0.04   0.25   0.09
  23   1    -0.00  -0.13  -0.25    -0.01   0.00   0.00     0.00  -0.22  -0.42
  24   1    -0.02   0.12   0.04    -0.01  -0.02  -0.03    -0.04   0.25   0.09
                     37                     38                     39
                        a                      a                      a 
 Frequencies --  1181.0589              1198.3748              1228.2539
 Red. masses --     7.0507                 1.9558                 6.1606
 Frc consts  --     0.0000                 0.0000                 0.0000
 IR Inten    --    12.6411                 7.6307               266.3874
 Raman Activ --     0.0000                 0.0000                 0.0000
 Depolar     --     0.0000                 0.0000                 0.0000
 Atom AN      X      Y      Z        X      Y      Z        X      Y      Z
   1   6    -0.07  -0.13   0.03    -0.03   0.04  -0.01    -0.17  -0.12   0.02
   2   6    -0.17  -0.01  -0.00     0.03   0.00   0.00    -0.19  -0.26   0.04
   3   6    -0.00   0.38  -0.10     0.23   0.00  -0.00     0.22   0.00  -0.00
   4   6     0.17  -0.01  -0.00     0.03  -0.00  -0.00    -0.19   0.26  -0.04
   5   6     0.07  -0.13   0.03    -0.03  -0.04   0.01    -0.17   0.12  -0.02
   6   6    -0.00   0.15  -0.02    -0.08   0.00  -0.00     0.03   0.00  -0.00
   7   1     0.20  -0.32   0.05     0.26  -0.45   0.08     0.14  -0.28   0.05
   8   1     0.00   0.04  -0.01    -0.58  -0.00  -0.00     0.58   0.00   0.00
   9   8    -0.10   0.13  -0.02    -0.08   0.02  -0.00     0.13  -0.15   0.02
  10   6     0.04  -0.10   0.02     0.02  -0.01   0.00    -0.06   0.05  -0.01
  11   1    -0.11   0.01   0.00    -0.03  -0.01  -0.01     0.07  -0.02  -0.01
  12   1     0.15   0.11  -0.02     0.07   0.06  -0.01    -0.02  -0.00  -0.00
  13   1    -0.10   0.01  -0.01    -0.03  -0.00   0.01     0.07  -0.02   0.02
  14   1    -0.20  -0.32   0.05     0.26   0.45  -0.08     0.14   0.28  -0.05
  15   8     0.10   0.13  -0.02    -0.08  -0.02   0.00     0.13   0.15  -0.02
  16   6    -0.04  -0.10   0.02     0.02   0.01  -0.00    -0.06  -0.05   0.01
  17   1    -0.15   0.11  -0.01     0.07  -0.06   0.01    -0.02   0.00   0.00
  18   1     0.11   0.01   0.00    -0.03   0.01   0.01     0.07   0.02   0.01
  19   1     0.10   0.01  -0.01    -0.03   0.00  -0.01     0.07   0.02  -0.02
  20   8    -0.00  -0.28   0.15    -0.01  -0.00   0.00    -0.03  -0.00   0.00
  21   6     0.00   0.12  -0.11    -0.00   0.00  -0.00     0.01   0.00  -0.00
  22   1    -0.02  -0.15  -0.05     0.00  -0.00  -0.00    -0.01   0.01   0.01
  23   1    -0.00   0.10   0.19     0.00   0.00   0.00    -0.01   0.00   0.00
  24   1     0.02  -0.15  -0.05     0.00   0.00   0.00    -0.01  -0.01  -0.01
                     40                     41                     42
                        a                      a                      a 
 Frequencies --  1296.7299              1320.2201              1384.6653
 Red. masses --    10.9669                11.8003                 2.4776
 Frc consts  --     0.0000                 0.0000                 0.0000
 IR Inten    --   228.1772                33.6386                 0.9193
 Raman Activ --     0.0000                 0.0000                 0.0000
 Depolar     --     0.0000                 0.0000                 0.0000
 Atom AN      X      Y      Z        X      Y      Z        X      Y      Z
   1   6     0.23   0.05  -0.01     0.17   0.29  -0.05     0.04   0.01  -0.00
   2   6     0.29   0.33  -0.05     0.21  -0.37   0.06    -0.04   0.06  -0.01
   3   6     0.00   0.23  -0.04    -0.45  -0.00   0.00    -0.00  -0.01   0.00
   4   6    -0.29   0.33  -0.05     0.21   0.37  -0.06     0.04   0.06  -0.01
   5   6    -0.23   0.05  -0.01     0.17  -0.29   0.05    -0.04   0.01  -0.00
   6   6     0.00  -0.32   0.05    -0.40  -0.00  -0.00    -0.00  -0.04   0.01
   7   1     0.06  -0.21   0.04     0.04  -0.07   0.02     0.02  -0.06   0.01
   8   1     0.00  -0.10   0.02     0.03  -0.00   0.00     0.00  -0.01   0.00
   9   8     0.21  -0.15   0.02     0.05  -0.06   0.01     0.02  -0.00   0.00
  10   6    -0.10   0.01  -0.00    -0.03   0.04  -0.00     0.08   0.04  -0.00
  11   1     0.09  -0.03  -0.00     0.03  -0.01  -0.00    -0.13  -0.03  -0.04
  12   1     0.03   0.04  -0.01    -0.04  -0.02   0.00    -0.11  -0.10   0.01
  13   1     0.09  -0.02   0.01     0.04  -0.00   0.01    -0.13  -0.02   0.04
  14   1    -0.06  -0.21   0.04     0.04   0.07  -0.02    -0.02  -0.06   0.01
  15   8    -0.21  -0.15   0.02     0.05   0.06  -0.01    -0.02  -0.00   0.00
  16   6     0.10   0.01  -0.00    -0.03  -0.04   0.00    -0.08   0.04  -0.00
  17   1    -0.03   0.04  -0.01    -0.04   0.02  -0.00     0.11  -0.10   0.01
  18   1    -0.09  -0.03  -0.00     0.03   0.01   0.00     0.13  -0.03  -0.04
  19   1    -0.09  -0.02   0.01     0.04   0.00  -0.01     0.13  -0.02   0.04
  20   8     0.00  -0.16   0.03     0.00  -0.00  -0.00     0.00  -0.08  -0.09
  21   6     0.00   0.02  -0.00     0.00  -0.00   0.00     0.00  -0.21  -0.19
  22   1    -0.01  -0.03   0.00    -0.00   0.00   0.00    -0.11   0.40   0.28
  23   1    -0.00   0.00   0.00    -0.00  -0.00  -0.00    -0.00   0.16   0.47
  24   1     0.01  -0.03   0.00    -0.00  -0.00  -0.00     0.11   0.40   0.28
                     43                     44                     45
                        a                      a                      a 
 Frequencies --  1386.6469              1389.3021              1445.1432
 Red. masses --     2.4617                 2.6547                 9.6719
 Frc consts  --     0.0000                 0.0000                 0.0000
 IR Inten    --     0.3016                 3.6122               425.5842
 Raman Activ --     0.0000                 0.0000                 0.0000
 Depolar     --     0.0000                 0.0000                 0.0000
 Atom AN      X      Y      Z        X      Y      Z        X      Y      Z
   1   6    -0.01  -0.05   0.01    -0.03  -0.03   0.00     0.04  -0.32   0.05
   2   6     0.01   0.01  -0.00    -0.07  -0.04   0.01     0.26   0.31  -0.05
   3   6    -0.05   0.00  -0.00    -0.00  -0.01   0.00    -0.34  -0.00   0.00
   4   6     0.01  -0.01   0.00     0.07  -0.04   0.01     0.26  -0.30   0.05
   5   6    -0.01   0.05  -0.01     0.03  -0.03   0.00     0.04   0.32  -0.05
   6   6    -0.04   0.00  -0.00    -0.00   0.06  -0.01    -0.30  -0.00   0.00
   7   1     0.05  -0.06   0.01    -0.02   0.05  -0.01     0.16  -0.14   0.02
   8   1     0.07   0.00   0.00     0.00   0.02  -0.00     0.31  -0.00   0.00
   9   8     0.08   0.02  -0.00    -0.11  -0.00   0.00    -0.08   0.08  -0.01
  10   6     0.21   0.08  -0.01    -0.19  -0.07   0.01    -0.04   0.00   0.00
  11   1    -0.35  -0.07  -0.09     0.32   0.07   0.09     0.05  -0.05  -0.01
  12   1    -0.28  -0.27   0.03     0.26   0.24  -0.03     0.06   0.06  -0.02
  13   1    -0.36  -0.04   0.10     0.33   0.04  -0.09     0.03  -0.04   0.03
  14   1     0.05   0.06  -0.01     0.02   0.05  -0.01     0.16   0.14  -0.02
  15   8     0.08  -0.02   0.00     0.11  -0.00   0.00    -0.08  -0.08   0.01
  16   6     0.21  -0.08   0.01     0.19  -0.07   0.01    -0.04  -0.00  -0.00
  17   1    -0.28   0.27  -0.03    -0.26   0.24  -0.03     0.06  -0.06   0.02
  18   1    -0.35   0.07   0.09    -0.32   0.07   0.09     0.04   0.05   0.01
  19   1    -0.36   0.04  -0.10    -0.33   0.04  -0.09     0.03   0.03  -0.03
  20   8     0.00   0.00   0.00     0.00  -0.02  -0.04     0.03   0.00  -0.00
  21   6     0.00   0.00   0.00     0.00  -0.09  -0.08     0.00  -0.00   0.00
  22   1    -0.00  -0.00   0.00    -0.04   0.17   0.11     0.00  -0.00  -0.00
  23   1    -0.00  -0.00  -0.00    -0.00   0.06   0.19    -0.01  -0.00   0.00
  24   1    -0.00   0.00  -0.00     0.04   0.17   0.11     0.00   0.00   0.00
                     46                     47                     48
                        a                      a                      a 
 Frequencies --  1446.3011              1457.2683              1457.3603
 Red. masses --    10.0289                 1.5547                 1.5607
 Frc consts  --     0.0000                 0.0000                 0.0000
 IR Inten    --   105.8463                 0.5915                15.3340
 Raman Activ --     0.0000                 0.0000                 0.0000
 Depolar     --     0.0000                 0.0000                 0.0000
 Atom AN      X      Y      Z        X      Y      Z        X      Y      Z
   1   6     0.19   0.11  -0.02    -0.00   0.01   0.00     0.01   0.00   0.00
   2   6    -0.41   0.18  -0.03    -0.01  -0.01   0.00    -0.02   0.01  -0.00
   3   6     0.00  -0.47   0.08     0.01   0.00  -0.00    -0.00  -0.02   0.00
   4   6     0.41   0.18  -0.03    -0.01   0.01  -0.00     0.02   0.01  -0.00
   5   6    -0.19   0.11  -0.02    -0.00  -0.01  -0.00    -0.01   0.00   0.00
   6   6     0.00  -0.16   0.03     0.01   0.00   0.00    -0.00  -0.00   0.00
   7   1     0.09  -0.19   0.03    -0.01   0.01   0.01     0.00  -0.01  -0.01
   8   1    -0.00  -0.05   0.01    -0.01   0.00   0.00     0.00  -0.00   0.00
   9   8    -0.10  -0.01   0.00     0.00   0.00   0.02    -0.00  -0.00  -0.02
  10   6    -0.02   0.07  -0.01    -0.00   0.02   0.15     0.00  -0.02  -0.15
  11   1     0.04  -0.11  -0.05     0.28  -0.17  -0.03    -0.28   0.17   0.03
  12   1     0.03   0.04  -0.02     0.01  -0.07  -0.50    -0.01   0.08   0.50
  13   1     0.02  -0.08   0.08    -0.28   0.15  -0.09     0.28  -0.15   0.09
  14   1    -0.09  -0.20   0.03    -0.01  -0.01  -0.01    -0.00  -0.01  -0.01
  15   8     0.11  -0.01   0.00     0.00  -0.00  -0.02     0.00  -0.00  -0.02
  16   6     0.03   0.07  -0.01    -0.00  -0.02  -0.15    -0.00  -0.02  -0.15
  17   1    -0.03   0.04  -0.02     0.01   0.07   0.50     0.01   0.07   0.50
  18   1    -0.04  -0.11  -0.05     0.28   0.17   0.03     0.28   0.17   0.03
  19   1    -0.02  -0.08   0.08    -0.28  -0.15   0.09    -0.28  -0.15   0.09
  20   8    -0.00   0.12  -0.01     0.00  -0.00  -0.00    -0.00   0.01  -0.00
  21   6    -0.00   0.01   0.05     0.02   0.00  -0.00    -0.00   0.01  -0.01
  22   1     0.07  -0.00  -0.10    -0.01  -0.05   0.00    -0.02  -0.02   0.03
  23   1     0.00  -0.00  -0.01    -0.08  -0.00  -0.00     0.00  -0.01  -0.02
  24   1    -0.07  -0.00  -0.10    -0.01   0.05  -0.00     0.02  -0.02   0.03
                     49                     50                     51
                        a                      a                      a 
 Frequencies --  1457.7970              1468.1830              1468.8893
 Red. masses --     1.5453                 1.6361                 1.6489
 Frc consts  --     0.0000                 0.0000                 0.0000
 IR Inten    --     3.4222                 9.4937                 5.6244
 Raman Activ --     0.0000                 0.0000                 0.0000
 Depolar     --     0.0000                 0.0000                 0.0000
 Atom AN      X      Y      Z        X      Y      Z        X      Y      Z
   1   6    -0.00  -0.00  -0.00     0.00   0.01   0.00    -0.01   0.05  -0.01
   2   6     0.00  -0.00   0.00     0.02   0.01  -0.00    -0.02  -0.03   0.00
   3   6     0.00  -0.00  -0.00     0.00   0.03  -0.01     0.02  -0.00   0.00
   4   6     0.00   0.00  -0.00    -0.02   0.01  -0.00    -0.02   0.03  -0.00
   5   6    -0.00   0.00   0.00    -0.00   0.01   0.00    -0.01  -0.05   0.01
   6   6     0.01  -0.00   0.00     0.00  -0.01   0.00     0.06  -0.00   0.00
   7   1     0.00  -0.00  -0.00     0.01  -0.02   0.00    -0.05   0.06  -0.01
   8   1    -0.00  -0.00   0.00    -0.00  -0.00   0.00    -0.05  -0.00  -0.00
   9   8    -0.00  -0.00  -0.00     0.01  -0.02   0.00     0.01   0.03  -0.00
  10   6     0.00  -0.01  -0.02     0.02  -0.06   0.00    -0.05   0.14  -0.02
  11   1    -0.03   0.04   0.01    -0.02   0.17   0.08     0.01  -0.41  -0.20
  12   1    -0.01   0.00   0.06    -0.06  -0.05   0.04     0.14   0.14  -0.01
  13   1     0.03  -0.00  -0.00     0.01   0.13  -0.12     0.01  -0.34   0.31
  14   1     0.00   0.00   0.00    -0.01  -0.02   0.00    -0.05  -0.06   0.01
  15   8    -0.00   0.00   0.00    -0.01  -0.02   0.00     0.01  -0.03   0.00
  16   6     0.00   0.01   0.02    -0.02  -0.06   0.00    -0.05  -0.14   0.02
  17   1    -0.01  -0.00  -0.06     0.06  -0.05   0.04     0.14  -0.14   0.01
  18   1    -0.03  -0.04  -0.01     0.02   0.17   0.08     0.01   0.41   0.20
  19   1     0.03   0.00   0.00    -0.01   0.13  -0.12     0.01   0.34  -0.31
  20   8     0.03   0.00   0.00    -0.00  -0.03   0.04    -0.00   0.00   0.00
  21   6     0.22  -0.00   0.00    -0.00  -0.15   0.14     0.01  -0.00   0.00
  22   1    -0.08  -0.46   0.00     0.34   0.24  -0.44    -0.00  -0.02   0.00
  23   1    -0.71  -0.00  -0.00     0.00   0.08   0.25    -0.03   0.00   0.00
  24   1    -0.09   0.46  -0.01    -0.34   0.24  -0.44    -0.00   0.02  -0.00
                     52                     53                     54
                        a                      a                      a 
 Frequencies --  1471.6963              1571.1407              1579.4175
 Red. masses --     2.2980                11.5427                11.6374
 Frc consts  --     0.0000                 0.0000                 0.0000
 IR Inten    --     2.8559                37.7878               155.0943
 Raman Activ --     0.0000                 0.0000                 0.0000
 Depolar     --     0.0000                 0.0000                 0.0000
 Atom AN      X      Y      Z        X      Y      Z        X      Y      Z
   1   6     0.06   0.03  -0.01    -0.17  -0.46   0.07    -0.32  -0.11   0.02
   2   6    -0.11   0.09  -0.01    -0.03   0.43  -0.07     0.26  -0.15   0.03
   3   6    -0.00  -0.13   0.03     0.00  -0.16   0.02    -0.42  -0.00   0.00
   4   6     0.11   0.09  -0.01     0.03   0.43  -0.07     0.26   0.15  -0.03
   5   6    -0.06   0.03  -0.01     0.17  -0.46   0.07    -0.32   0.11  -0.02
   6   6    -0.00  -0.06   0.01    -0.00   0.24  -0.04     0.61   0.00   0.00
   7   1     0.05  -0.10   0.02    -0.09   0.11  -0.02    -0.03  -0.06   0.01
   8   1     0.00  -0.02   0.00    -0.00   0.06  -0.01    -0.15  -0.00  -0.00
   9   8    -0.02  -0.05   0.01     0.03  -0.05   0.01     0.01  -0.03   0.00
  10   6     0.04  -0.11   0.02    -0.00   0.02  -0.00    -0.01   0.01  -0.00
  11   1     0.00   0.36   0.18     0.00  -0.01  -0.00     0.01   0.01   0.01
  12   1    -0.14  -0.13   0.00    -0.02  -0.01   0.00    -0.01  -0.01   0.00
  13   1    -0.01   0.30  -0.28    -0.00  -0.00   0.01     0.01   0.01  -0.01
  14   1    -0.05  -0.10   0.02     0.09   0.11  -0.02    -0.03   0.06  -0.01
  15   8     0.02  -0.05   0.01    -0.03  -0.05   0.01     0.01   0.03  -0.00
  16   6    -0.04  -0.11   0.02     0.00   0.02  -0.00    -0.01  -0.01   0.00
  17   1     0.14  -0.13   0.00     0.02  -0.01   0.00    -0.01   0.01  -0.00
  18   1    -0.00   0.36   0.18    -0.00  -0.01  -0.00     0.01  -0.01  -0.01
  19   1     0.01   0.30  -0.28     0.00  -0.00   0.01     0.01  -0.01   0.01
  20   8     0.00   0.03  -0.02     0.00  -0.02   0.00     0.01   0.00  -0.00
  21   6     0.00   0.07  -0.05    -0.00   0.01   0.01    -0.00  -0.00   0.00
  22   1    -0.14  -0.11   0.17     0.01  -0.01  -0.01     0.00   0.01   0.00
  23   1    -0.00  -0.03  -0.11    -0.00   0.00  -0.00     0.00  -0.00  -0.00
  24   1     0.14  -0.11   0.17    -0.01  -0.01  -0.01     0.00  -0.01  -0.00
                     55                     56                     57
                        a                      a                      a 
 Frequencies --  2926.4829              2943.8163              2946.7840
 Red. masses --     1.9493                 1.4217                 1.9222
 Frc consts  --     0.0000                 0.0000                 0.0000
 IR Inten    --    70.0229                51.0308                 5.0892
 Raman Activ --     0.0000                 0.0000                 0.0000
 Depolar     --     0.0000                 0.0000                 0.0000
 Atom AN      X      Y      Z        X      Y      Z        X      Y      Z
   1   6    -0.00   0.00   0.00     0.00  -0.00  -0.00     0.00  -0.00   0.00
   2   6     0.00   0.00  -0.00     0.00  -0.00  -0.00     0.00   0.00   0.00
   3   6    -0.00  -0.00  -0.00    -0.00   0.00   0.00    -0.00  -0.00  -0.00
   4   6     0.00  -0.00   0.00    -0.00  -0.00  -0.00     0.00  -0.00  -0.00
   5   6    -0.00  -0.00  -0.00    -0.00  -0.00  -0.00     0.00   0.00  -0.00
   6   6    -0.00   0.00  -0.00    -0.00  -0.00   0.00     0.00  -0.00  -0.00
   7   1     0.00  -0.00  -0.00     0.00   0.00  -0.00    -0.00  -0.00  -0.00
   8   1     0.00  -0.00   0.00    -0.00   0.00  -0.00     0.00   0.00   0.00
   9   8     0.00   0.00   0.00    -0.00  -0.00   0.00    -0.00  -0.00   0.00
  10   6     0.00   0.00  -0.00     0.00  -0.00  -0.00    -0.01  -0.01   0.18
  11   1    -0.00  -0.01   0.01     0.00   0.00  -0.00     0.06   0.24  -0.47
  12   1     0.00   0.00  -0.00    -0.00   0.00  -0.00    -0.00   0.00   0.03
  13   1    -0.00  -0.00  -0.00     0.00   0.01   0.01    -0.03  -0.21  -0.20
  14   1     0.00   0.00   0.00    -0.00   0.00  -0.00    -0.00   0.00   0.00
  15   8     0.00  -0.00  -0.00     0.00  -0.00   0.00    -0.00   0.00  -0.00
  16   6     0.00  -0.00   0.00    -0.00  -0.00  -0.00    -0.01   0.01  -0.22
  17   1     0.00  -0.00   0.00     0.00   0.00  -0.00    -0.00  -0.00  -0.03
  18   1    -0.00   0.00  -0.01    -0.00   0.00  -0.00     0.08  -0.29   0.57
  19   1    -0.00   0.00   0.00    -0.00   0.01   0.01    -0.03   0.26   0.24
  20   8     0.01   0.00   0.00     0.00  -0.01  -0.02    -0.00   0.00   0.00
  21   6     0.29  -0.00   0.00     0.00   0.07  -0.18     0.00  -0.00   0.00
  22   1    -0.54   0.13  -0.39     0.59  -0.10   0.35    -0.01   0.00  -0.01
  23   1     0.05   0.00   0.00     0.00   0.01  -0.02     0.00   0.00  -0.00
  24   1    -0.54  -0.13   0.39    -0.59  -0.11   0.36    -0.01  -0.00   0.01
                     58                     59                     60
                        a                      a                      a 
 Frequencies --  2946.8316              2959.5196              2959.8268
 Red. masses --     1.9235                 1.4759                 1.4752
 Frc consts  --     0.0000                 0.0000                 0.0000
 IR Inten    --    78.0872                50.4837                37.1309
 Raman Activ --     0.0000                 0.0000                 0.0000
 Depolar     --     0.0000                 0.0000                 0.0000
 Atom AN      X      Y      Z        X      Y      Z        X      Y      Z
   1   6    -0.00   0.00  -0.00    -0.00   0.00  -0.00     0.00  -0.00   0.00
   2   6    -0.00  -0.00  -0.00    -0.00  -0.00   0.00     0.00   0.00  -0.00
   3   6    -0.00   0.00   0.00     0.00  -0.00   0.00    -0.00  -0.00   0.00
   4   6     0.00  -0.00  -0.00    -0.00   0.00  -0.00    -0.00   0.00  -0.00
   5   6     0.00   0.00  -0.00    -0.00  -0.00   0.00    -0.00  -0.00   0.00
   6   6     0.00   0.00   0.00    -0.00  -0.00   0.00     0.00  -0.00   0.00
   7   1    -0.00  -0.00  -0.00     0.01   0.00  -0.00     0.01   0.00  -0.00
   8   1     0.00  -0.00  -0.00    -0.00   0.00  -0.00     0.00   0.00  -0.00
   9   8    -0.00  -0.00   0.00     0.01   0.01   0.00     0.01   0.01   0.00
  10   6    -0.01  -0.01   0.22     0.02   0.14   0.04     0.02   0.14   0.03
  11   1     0.08   0.29  -0.57    -0.04  -0.13   0.32    -0.04  -0.12   0.31
  12   1    -0.00   0.00   0.03     0.01   0.01   0.01     0.01   0.01   0.01
  13   1    -0.03  -0.26  -0.24    -0.06  -0.41  -0.46    -0.06  -0.38  -0.44
  14   1     0.00  -0.00  -0.00     0.01  -0.00   0.00    -0.01   0.00  -0.00
  15   8     0.00  -0.00   0.00     0.01  -0.01  -0.00    -0.01   0.01   0.00
  16   6     0.01  -0.01   0.18     0.02  -0.14  -0.04    -0.02   0.14   0.04
  17   1     0.00   0.00   0.03     0.01  -0.01  -0.01    -0.01   0.01   0.01
  18   1    -0.06   0.24  -0.47    -0.04   0.12  -0.31     0.04  -0.13   0.33
  19   1     0.03  -0.22  -0.20    -0.06   0.38   0.44     0.06  -0.40  -0.46
  20   8    -0.00  -0.00  -0.00     0.00   0.00  -0.00    -0.00   0.00  -0.00
  21   6     0.00   0.00  -0.00    -0.00   0.00  -0.00     0.00   0.00  -0.00
  22   1     0.00  -0.00   0.00     0.01  -0.00   0.00     0.01  -0.00   0.01
  23   1     0.00  -0.00  -0.00    -0.00  -0.00   0.00     0.00  -0.00   0.00
  24   1    -0.01  -0.00   0.00     0.01   0.00  -0.00    -0.01  -0.00   0.01
                     61                     62                     63
                        a                      a                      a 
 Frequencies --  3031.3614              3035.3019              3035.4533
 Red. masses --     1.7101                 1.7076                 1.7065
 Frc consts  --     0.0000                 0.0000                 0.0000
 IR Inten    --    27.5571                20.8490                 7.8227
 Raman Activ --     0.0000                 0.0000                 0.0000
 Depolar     --     0.0000                 0.0000                 0.0000
 Atom AN      X      Y      Z        X      Y      Z        X      Y      Z
   1   6    -0.00   0.00  -0.00     0.00  -0.00   0.00     0.00  -0.00   0.00
   2   6     0.00  -0.00   0.00    -0.00  -0.00  -0.00    -0.00   0.00  -0.00
   3   6    -0.00  -0.00   0.00    -0.00   0.00  -0.00     0.00   0.00  -0.00
   4   6    -0.00  -0.00   0.00    -0.00   0.00   0.00     0.00   0.00  -0.00
   5   6     0.00   0.00  -0.00     0.00   0.00  -0.00    -0.00  -0.00   0.00
   6   6     0.00   0.00  -0.00    -0.00  -0.00  -0.00     0.00  -0.00   0.00
   7   1    -0.00  -0.00   0.00    -0.00  -0.00   0.00     0.00   0.00  -0.00
   8   1    -0.00  -0.00   0.00    -0.00  -0.00   0.00     0.00  -0.00   0.00
   9   8     0.00  -0.00   0.00     0.01  -0.00   0.00    -0.01   0.00  -0.00
  10   6     0.00  -0.01   0.00     0.12  -0.13   0.02    -0.12   0.13  -0.02
  11   1     0.00  -0.00   0.00     0.01  -0.02   0.01    -0.01   0.02  -0.01
  12   1    -0.02   0.02  -0.00    -0.45   0.50  -0.08     0.46  -0.51   0.08
  13   1     0.00   0.00   0.00     0.01  -0.02   0.00    -0.01   0.02   0.00
  14   1     0.00  -0.00   0.00    -0.00   0.00  -0.00    -0.00   0.00  -0.00
  15   8    -0.00  -0.00   0.00     0.01   0.00  -0.00     0.01   0.00  -0.00
  16   6    -0.00  -0.01   0.00     0.12   0.13  -0.02     0.12   0.13  -0.02
  17   1     0.02   0.02  -0.00    -0.46  -0.51   0.09    -0.45  -0.50   0.08
  18   1    -0.00  -0.00   0.00     0.01   0.02  -0.01     0.01   0.02  -0.01
  19   1    -0.00   0.00   0.00     0.01   0.02  -0.00     0.01   0.02   0.00
  20   8    -0.00   0.01   0.00     0.00   0.00   0.00    -0.00   0.00   0.00
  21   6    -0.00   0.23  -0.09    -0.00   0.00  -0.00    -0.00   0.01  -0.00
  22   1    -0.00   0.03  -0.02     0.00   0.00   0.00     0.00   0.00  -0.00
  23   1     0.00  -0.90   0.34    -0.00  -0.00   0.00     0.00  -0.03   0.01
  24   1     0.00   0.03  -0.02     0.00   0.00  -0.00    -0.00   0.00  -0.00
                     64                     65                     66
                        a                      a                      a 
 Frequencies --  3097.4734              3120.2140              3125.0873
 Red. masses --     1.7945                 1.8301                 1.8735
 Frc consts  --     0.0000                 0.0000                 0.0000
 IR Inten    --    24.3497                40.2075                30.0752
 Raman Activ --     0.0000                 0.0000                 0.0000
 Depolar     --     0.0000                 0.0000                 0.0000
 Atom AN      X      Y      Z        X      Y      Z        X      Y      Z
   1   6     0.04  -0.02   0.00     0.16  -0.10   0.02    -0.16   0.09  -0.02
   2   6     0.00  -0.00   0.00     0.01   0.00  -0.00    -0.01  -0.00   0.00
   3   6    -0.00  -0.00  -0.00    -0.00  -0.00  -0.00    -0.00  -0.00   0.00
   4   6    -0.00  -0.00   0.00     0.01  -0.00   0.00     0.01  -0.00   0.00
   5   6    -0.04  -0.02   0.00     0.16   0.10  -0.02     0.16   0.09  -0.02
   6   6    -0.00   0.25  -0.04     0.00  -0.00   0.00    -0.00   0.09  -0.02
   7   1     0.18   0.10  -0.02    -0.58  -0.34   0.06    -0.56  -0.33   0.06
   8   1     0.00  -0.91   0.15    -0.00   0.00  -0.00     0.00  -0.28   0.05
   9   8    -0.00   0.00  -0.00     0.00   0.00  -0.00     0.00   0.00  -0.00
  10   6     0.00  -0.00   0.00    -0.00   0.00  -0.00     0.00   0.00  -0.00
  11   1     0.00   0.00  -0.00    -0.00  -0.00   0.01    -0.00  -0.00   0.01
  12   1    -0.00   0.00  -0.00     0.00  -0.00   0.00     0.00  -0.00   0.00
  13   1     0.00   0.00   0.00    -0.00  -0.00  -0.00    -0.00  -0.00  -0.00
  14   1    -0.18   0.10  -0.02    -0.58   0.34  -0.06     0.56  -0.33   0.06
  15   8     0.00   0.00  -0.00     0.00  -0.00   0.00    -0.00   0.00  -0.00
  16   6    -0.00  -0.00   0.00    -0.00  -0.00   0.00    -0.00   0.00  -0.00
  17   1     0.00   0.00  -0.00     0.00   0.00  -0.00    -0.00  -0.00   0.00
  18   1    -0.00   0.00  -0.00    -0.00   0.00  -0.01     0.00  -0.00   0.01
  19   1    -0.00   0.00   0.00    -0.00   0.00   0.00     0.00  -0.00  -0.00
  20   8     0.00  -0.00   0.00     0.00  -0.00  -0.00     0.00   0.00  -0.00
  21   6     0.00  -0.00  -0.00     0.00   0.00   0.00     0.00  -0.00  -0.00
  22   1     0.00  -0.00   0.00    -0.00   0.00  -0.00     0.00  -0.00   0.00
  23   1    -0.00   0.00  -0.00    -0.00  -0.00   0.00    -0.00   0.00  -0.00
  24   1    -0.00  -0.00   0.00    -0.00  -0.00   0.00    -0.00  -0.00   0.00
