      -----------------------------------------------------------      
     |                   =====================                   |     
     |                           x T B                           |     
     |                   =====================                   |     
     |                         S. Grimme                         |     
     |          Mulliken Center for Theoretical Chemistry        |     
     |                    University of Bonn                     |     
      -----------------------------------------------------------      

   * xtb version 6.4.1 (afa7bdf) compiled by 'ehlert@majestix' on 2021-06-10

   xtb is free software: you can redistribute it and/or modify it under
   the terms of the GNU Lesser General Public License as published by
   the Free Software Foundation, either version 3 of the License, or
   (at your option) any later version.
   
   xtb is distributed in the hope that it will be useful,
   but WITHOUT ANY WARRANTY; without even the implied warranty of
   MERCHANTABILITY or FITNESS FOR A PARTICULAR PURPOSE.  See the
   GNU Lesser General Public License for more details.
   
   Cite this work as:
   * C. Bannwarth, E. Caldeweyher, S. Ehlert, A. Hansen, P. Pracht,
     J. Seibert, S. Spicher, S. Grimme, WIREs Comput. Mol. Sci., 2020, 11,
     e01493. DOI: 10.1002/wcms.1493
   
   for GFN2-xTB:
   * C. Bannwarth, S. Ehlert and S. Grimme., J. Chem. Theory Comput., 2019,
     15, 1652-1671. DOI: 10.1021/acs.jctc.8b01176
   for GFN1-xTB:
   * S. Grimme, C. Bannwarth, P. Shushkov, J. Chem. Theory Comput., 2017,
     13, 1989-2009. DOI: 10.1021/acs.jctc.7b00118
   for GFN0-xTB:
   * P. Pracht, E. Caldeweyher, S. Ehlert, S. Grimme, ChemRxiv, 2019, preprint.
     DOI: 10.26434/chemrxiv.8326202.v1
   for GFN-FF:
   * S. Spicher and S. Grimme, Angew. Chem. Int. Ed., 2020, 59, 15665-15673.
     DOI: 10.1002/anie.202004239
   
   for DFT-D4:
   * E. Caldeweyher, C. Bannwarth and S. Grimme, J. Chem. Phys., 2017,
     147, 034112. DOI: 10.1063/1.4993215
   * E. Caldeweyher, S. Ehlert, A. Hansen, H. Neugebauer, S. Spicher,
     C. Bannwarth and S. Grimme, J. Chem. Phys., 2019, 150, 154122.
     DOI: 10.1063/1.5090222
   * E. Caldeweyher, J.-M. Mewes, S. Ehlert and S. Grimme, Phys. Chem. Chem. Phys.
     2020, 22, 8499-8512. DOI: 10.1039/D0CP00502A
   
   for sTDA-xTB:
   * S. Grimme and C. Bannwarth, J. Chem. Phys., 2016, 145, 054103.
     DOI: 10.1063/1.4959605
   
   in the mass-spec context:
   * V. Asgeirsson, C. Bauer and S. Grimme, Chem. Sci., 2017, 8, 4879.
     DOI: 10.1039/c7sc00601b
   * J. Koopman and S. Grimme, ACS Omega 2019, 4, 12, 15120-15133.
     DOI: 10.1021/acsomega.9b02011
   
   for metadynamics refer to:
   * S. Grimme, J. Chem. Theory Comput., 2019, 155, 2847-2862
     DOI: 10.1021/acs.jctc.9b00143
   
   for SPH calculations refer to:
   * S. Spicher and S. Grimme, J. Chem. Theory Comput., 2021, 17, 1701-1714
     DOI: 10.1021/acs.jctc.0c01306
   
   with help from (in alphabetical order)
   P. Atkinson, C. Bannwarth, F. Bohle, G. Brandenburg, E. Caldeweyher
   M. Checinski, S. Dohm, S. Ehlert, S. Ehrlich, I. Gerasimov, J. Koopman
   C. Lavigne, S. Lehtola, F. März, M. Müller, F. Musil, H. Neugebauer
   J. Pisarek, C. Plett, P. Pracht, J. Seibert, P. Shushkov, S. Spicher
   M. Stahn, M. Steiner, T. Strunk, J. Stückrath, T. Rose, and J. Unsleber
   
 * started run on 2021/11/15 at 09:36:09.234     

           -------------------------------------------------
          |                Calculation Setup                |
           -------------------------------------------------

          program call               : xtb 04_3-hydroxy-acetophenone.xyz --gfn2 --chrg 0 --uhf 0 --alpb water --ohess -P 1
          coordinate file            : 04_3-hydroxy-acetophenone.xyz
          omp threads                :                     1
          number of atoms            :                    18
          number of electrons        :                    52
          charge                     :                     0
          spin                       :                   0.0
          first test random number   :      0.48442660792557

   ID    Z sym.   atoms
    1    6 C      1-6, 13, 15
    2    8 O      7, 14
    3    1 H      8-12, 16-18

           -------------------------------------------------
          |                 G F N 2 - x T B                 |
           -------------------------------------------------

        Reference                      10.1021/acs.jctc.8b01176
      * Hamiltonian:
        H0-scaling (s, p, d)           1.850000    2.230000    2.230000
        zeta-weighting                 0.500000
      * Dispersion:
        s8                             2.700000
        a1                             0.520000
        a2                             5.000000
        s9                             5.000000
      * Repulsion:
        kExp                           1.500000    1.000000
        rExp                           1.000000
      * Coulomb:
        alpha                          2.000000
        third order                    shell-resolved
        anisotropic                    true
        a3                             3.000000
        a5                             4.000000
        cn-shift                       1.200000
        cn-exp                         4.000000
        max-rad                        5.000000

      * Solvation model:               ALPB
        Solvent                        water
        Parameter file                 internal GFN2-xTB/ALPB
        Dielectric constant                8.0200E+01
        Reference state                gsolv [1 M gas/solution]
        Free energy shift                  1.0808E-03 Eh       6.7819E-01 kcal/mol
        Temperature                        2.9815E+02 K
        Density                            1.0000E+00 kg/L
        Solvent mass                       1.8000E+01 g/mol
        Interaction kernel             P16
        Born radius scaling (c1)           1.4744E+00
        Born radii integrator          GBOBC
        Born offset                        0.0000E+00 a0       0.0000E+00 AA
        H-bond correction              true
        Ion screening                  false
        Surface tension                    1.0000E-05 Eh       1.5569E+01 dyn/cm
        Grid points                               230 per atom

          ...................................................
          :                      SETUP                      :
          :.................................................:
          :  # basis functions                  48          :
          :  # atomic orbitals                  48          :
          :  # shells                           28          :
          :  # electrons                        52          :
          :  max. iterations                   250          :
          :  Hamiltonian                  GFN2-xTB          :
          :  restarted?                      false          :
          :  GBSA solvation                   true          :
          :  PC potential                    false          :
          :  electronic temp.          300.0000000     K    :
          :  accuracy                    1.0000000          :
          :  -> integral cutoff          0.2500000E+02      :
          :  -> integral neglect         0.1000000E-07      :
          :  -> SCF convergence          0.1000000E-05 Eh   :
          :  -> wf. convergence          0.1000000E-03 e    :
          :  Broyden damping             0.4000000          :
          ...................................................

 iter      E             dE          RMSdq      gap      omega  full diag
   1    -29.6939544 -0.296940E+02  0.519E+00    3.04       0.0  T
   2    -29.7315195 -0.375651E-01  0.283E+00    2.79       1.0  T
   3    -29.7291656  0.235393E-02  0.130E+00    3.06       1.0  T
   4    -29.7368064 -0.764084E-02  0.262E-01    2.93       1.0  T
   5    -29.7372619 -0.455495E-03  0.920E-02    2.93       1.0  T
   6    -29.7372997 -0.377830E-04  0.470E-02    2.93       1.0  T
   7    -29.7373032 -0.343738E-05  0.114E-02    2.93       2.1  T
   8    -29.7373038 -0.672473E-06  0.461E-03    2.93       5.1  T
   9    -29.7373039 -0.108267E-06  0.268E-03    2.93       8.8  T
  10    -29.7373040 -0.183621E-07  0.703E-04    2.93      33.5  T
  11    -29.7373040 -0.356630E-08  0.283E-04    2.93      83.3  T

   *** convergence criteria satisfied after 11 iterations ***

         #    Occupation            Energy/Eh            Energy/eV
      -------------------------------------------------------------
         1        2.0000           -0.7123807             -19.3849
       ...           ...                  ...                  ...
        20        2.0000           -0.4661689             -12.6851
        21        2.0000           -0.4652129             -12.6591
        22        2.0000           -0.4437263             -12.0744
        23        2.0000           -0.4398623             -11.9693
        24        2.0000           -0.4156228             -11.3097
        25        2.0000           -0.3986820             -10.8487
        26        2.0000           -0.3927083             -10.6861 (HOMO)
        27                         -0.2851364              -7.7590 (LUMO)
        28                         -0.2271261              -6.1804
        29                         -0.1981033              -5.3907
        30                         -0.0938047              -2.5526
        31                          0.0529405               1.4406
       ...                                ...                  ...
        48                          0.6370503              17.3350
      -------------------------------------------------------------
                  HL-Gap            0.1075719 Eh            2.9272 eV
             Fermi-level           -0.3389224 Eh           -9.2225 eV

 SCC (total)                   0 d,  0 h,  0 min,  0.011 sec
 SCC setup                      ...        0 min,  0.000 sec (  4.061%)
 Dispersion                     ...        0 min,  0.000 sec (  1.234%)
 classical contributions        ...        0 min,  0.000 sec (  0.210%)
 integral evaluation            ...        0 min,  0.002 sec ( 15.683%)
 iterations                     ...        0 min,  0.005 sec ( 46.518%)
 molecular gradient             ...        0 min,  0.003 sec ( 30.684%)
 printout                       ...        0 min,  0.000 sec (  1.385%)

         :::::::::::::::::::::::::::::::::::::::::::::::::::::
         ::                     SUMMARY                     ::
         :::::::::::::::::::::::::::::::::::::::::::::::::::::
         :: total energy             -29.332327818249 Eh    ::
         :: total w/o Gsasa/hb       -29.327665930535 Eh    ::
         :: gradient norm              0.021931590194 Eh/a0 ::
         :: HOMO-LUMO gap              2.927181621213 eV    ::
         ::.................................................::
         :: SCC energy               -29.737303965073 Eh    ::
         :: -> isotropic ES            0.066856280673 Eh    ::
         :: -> anisotropic ES          0.001230687478 Eh    ::
         :: -> anisotropic XC          0.010825370293 Eh    ::
         :: -> dispersion             -0.014236385616 Eh    ::
         :: -> Gsolv                  -0.017404474820 Eh    ::
         ::    -> Gelec               -0.012742587106 Eh    ::
         ::    -> Gsasa                0.001845510346 Eh    ::
         ::    -> Ghb                 -0.007588157757 Eh    ::
         ::    -> Gshift               0.001080759698 Eh    ::
         :: repulsion energy           0.404936903290 Eh    ::
         :: add. restraining           0.000000000000 Eh    ::
         :: total charge              -0.000000000000 e     ::
         :::::::::::::::::::::::::::::::::::::::::::::::::::::

      ----------------------------------------------------------- 
     |                   =====================                   |
     |                        A N C O P T                        |
     |                   =====================                   |
     |               Approximate Normal Coordinate               |
     |                Rational Function Optimizer                |
      ----------------------------------------------------------- 

          ...................................................
          :                      SETUP                      :
          :.................................................:
          :   optimization level            normal          :
          :   max. optcycles                   200          :
          :   ANC micro-cycles                  20          :
          :   degrees of freedom                48          :
          :.................................................:
          :   RF solver                   davidson          :
          :   write xtbopt.log                true          :
          :   linear?                        false          :
          :   energy convergence         0.5000000E-05 Eh   :
          :   grad. convergence          0.1000000E-02 Eh/α :
          :   maximium RF displ.         1.0000000          :
          :   Hlow (freq-cutoff)         0.1000000E-01      :
          :   Hmax (freq-cutoff)         5.0000000          :
          :   S6 in model hess.         20.0000000          :
          ...................................................

generating ANC from model Hessian ...
Using Lindh-Hessian (1995)
 Shifting diagonal of input Hessian by   7.772255197515112E-003
 Lowest  eigenvalues of input Hessian
    0.000000    0.000000    0.000000    0.000000    0.000000    0.000000
    0.010000    0.012212    0.013881    0.016417    0.019753    0.025119
    0.033648    0.034321    0.046852    0.047893    0.054179    0.061778
 Highest eigenvalues
    1.581669    1.693172    1.867956    1.983552    2.017567    2.126580
 

........................................................................
.............................. CYCLE    1 ..............................
........................................................................
   1    -29.7373040 -0.297373E+02  0.195E-04    2.93       0.0  T
   2    -29.7373040 -0.268642E-09  0.822E-05    2.93     286.6  T
   3    -29.7373040 -0.544134E-10  0.485E-05    2.93     486.2  T
     SCC iter.                  ...        0 min,  0.002 sec
     gradient                   ...        0 min,  0.003 sec
 * total energy  :   -29.3323278 Eh     change       -0.3748966E-09 Eh
   gradient norm :     0.0219326 Eh/α   predicted     0.0000000E+00 (-100.00%)
   displ. norm   :     0.1118201 α      lambda       -0.1352124E-02
   maximum displ.:     0.0793152 α      in ANC's #8, #27, #9, ...

........................................................................
.............................. CYCLE    2 ..............................
........................................................................
   1    -29.7517707 -0.297518E+02  0.106E-01    2.93       0.0  T
   2    -29.7517814 -0.107215E-04  0.618E-02    2.94       1.0  T
   3    -29.7517786  0.278508E-05  0.319E-02    2.94       1.0  T
   4    -29.7517850 -0.641579E-05  0.404E-03    2.94       5.8  T
   5    -29.7517851 -0.108293E-06  0.197E-03    2.94      11.9  T
   6    -29.7517851 -0.109023E-07  0.111E-03    2.94      21.2  T
   7    -29.7517851 -0.325988E-08  0.409E-04    2.94      57.6  T
   8    -29.7517851 -0.440188E-09  0.189E-04    2.94     124.9  T
     SCC iter.                  ...        0 min,  0.005 sec
     gradient                   ...        0 min,  0.003 sec
 * total energy  :   -29.3331840 Eh     change       -0.8561377E-03 Eh
   gradient norm :     0.0091618 Eh/α   predicted    -0.6845144E-03 ( -20.05%)
   displ. norm   :     0.0509090 α      lambda       -0.1815264E-03
   maximum displ.:     0.0440961 α      in ANC's #8, #27, #9, ...

........................................................................
.............................. CYCLE    3 ..............................
........................................................................
   1    -29.7558623 -0.297559E+02  0.449E-02    2.93       0.0  T
   2    -29.7558661 -0.381088E-05  0.258E-02    2.93       1.0  T
   3    -29.7558665 -0.385996E-06  0.151E-02    2.93       1.6  T
   4    -29.7558674 -0.896938E-06  0.230E-03    2.93      10.3  T
   5    -29.7558674 -0.348511E-07  0.101E-03    2.93      23.3  T
   6    -29.7558674 -0.533339E-08  0.522E-04    2.93      45.1  T
   7    -29.7558674 -0.574587E-09  0.257E-04    2.93      91.6  T
     SCC iter.                  ...        0 min,  0.005 sec
     gradient                   ...        0 min,  0.005 sec
 * total energy  :   -29.3332863 Eh     change       -0.1023898E-03 Eh
   gradient norm :     0.0031488 Eh/α   predicted    -0.9099986E-04 ( -11.12%)
   displ. norm   :     0.0129689 α      lambda       -0.1578996E-04
   maximum displ.:     0.0101278 α      in ANC's #8, #9, #18, ...

........................................................................
.............................. CYCLE    4 ..............................
........................................................................
   1    -29.7555998 -0.297556E+02  0.116E-02    2.92       0.0  T
   2    -29.7556002 -0.376194E-06  0.683E-03    2.93       3.5  T
   3    -29.7556003 -0.767233E-07  0.404E-03    2.93       5.8  T
   4    -29.7556003 -0.441904E-07  0.709E-04    2.93      33.2  T
   5    -29.7556003 -0.283585E-08  0.318E-04    2.93      74.1  T
     SCC iter.                  ...        0 min,  0.002 sec
     gradient                   ...        0 min,  0.003 sec
 * total energy  :   -29.3332970 Eh     change       -0.1068124E-04 Eh
   gradient norm :     0.0011789 Eh/α   predicted    -0.7896385E-05 ( -26.07%)
   displ. norm   :     0.0131871 α      lambda       -0.4868979E-05
   maximum displ.:     0.0091355 α      in ANC's #9, #8, #19, ...

........................................................................
.............................. CYCLE    5 ..............................
........................................................................
   1    -29.7548602 -0.297549E+02  0.101E-02    2.92       0.0  T
   2    -29.7548605 -0.221020E-06  0.620E-03    2.92       3.8  T
   3    -29.7548605 -0.287962E-07  0.347E-03    2.92       6.8  T
   4    -29.7548605 -0.426106E-07  0.555E-04    2.92      42.4  T
   5    -29.7548605 -0.159122E-08  0.276E-04    2.92      85.3  T
     SCC iter.                  ...        0 min,  0.003 sec
     gradient                   ...        0 min,  0.003 sec
 * total energy  :   -29.3332996 Eh     change       -0.2538906E-05 Eh
   gradient norm :     0.0006756 Eh/α   predicted    -0.2435463E-05 (  -4.07%)
   displ. norm   :     0.0034528 α      lambda       -0.6214578E-06
   maximum displ.:     0.0021950 α      in ANC's #8, #12, #3, ...

   *** GEOMETRY OPTIMIZATION CONVERGED AFTER 5 ITERATIONS ***

------------------------------------------------------------------------
 total energy gain   :        -0.0009717 Eh       -0.6098 kcal/mol
 total RMSD          :         0.0395572 a0        0.0209 Å
 total power (kW/mol):        -0.5102648 (step)  -28.0547 (real)
------------------------------------------------------------------------

 ANCopt (total)                0 d,  0 h,  0 min,  0.091 sec
 optimizer setup                ...        0 min,  0.000 sec (  0.303%)
 model hessian                  ...        0 min,  0.023 sec ( 25.467%)
 ANC generation                 ...        0 min,  0.004 sec (  4.757%)
 coordinate transformation      ...        0 min,  0.008 sec (  8.662%)
 single point calculation       ...        0 min,  0.048 sec ( 52.563%)
 optimization log               ...        0 min,  0.004 sec (  4.833%)
 hessian update                 ...        0 min,  0.000 sec (  0.035%)
 rational function              ...        0 min,  0.003 sec (  3.011%)

================
 final structure:
================
18
 xtb: 6.4.1 (afa7bdf)
C         0.11484012625851    1.52472728980563    0.00002011091160
C        -1.23646533691630    1.81541792422477    0.00002704368162
C        -2.16786488284874    0.79481598048891    0.00000839083948
C        -1.74586542805497   -0.53519464030666   -0.00001900274921
C        -0.38916189694182   -0.83070172698088   -0.00002682325767
C         0.55170904195813    0.19920244285093   -0.00000452052271
O        -2.69643379717727   -1.50003342989722   -0.00003695748342
H        -2.29694986708602   -2.38380719175837   -0.00004928571348
H        -1.56736969905497    2.84199883009318    0.00004772068745
H        -3.22666716104896    0.99911895810066    0.00001422389965
H        -0.07356570316775   -1.86189719143957   -0.00005751481511
H         0.85674412409966    2.30880381590188    0.00003667702734
C         2.01039330836042   -0.05368783598979   -0.00000598929691
O         2.81111353268299    0.87059136511708   -0.00007956648747
C         2.47521226704727   -1.48322188228834    0.00007157603994
H         3.56187484131921   -1.50506496959283    0.00020497207891
H         2.10289079297189   -1.99310970049291    0.88475745243903
H         2.10312373759874   -1.99309903783647   -0.88472150727904
 
 Bond Distances (Angstroems)
 ---------------------------
C1-C2=1.3822         C1-C6=1.3957         C1-H12=1.0794        C2-C1=1.3822         C2-C3=1.3817         C2-H9=1.0786         
C3-C2=1.3817         C3-C4=1.3954         C3-H10=1.0783        C4-C3=1.3954         C4-C5=1.3885         C4-O7=1.3544         
C5-C4=1.3885         C5-C6=1.3950         C5-H11=1.0784        C6-C1=1.3957         C6-C5=1.3950         C6-C13=1.4804        
O7-C4=1.3544         O7-H8=0.9699         H8-O7=0.9699         H9-C2=1.0786         H10-C3=1.0783        H11-C5=1.0784        
H12-C1=1.0794        C13-C6=1.4804        C13-O14=1.2229       C13-C15=1.5032       O14-C13=1.2229       C15-C13=1.5032       
C15-H16=1.0869       C15-H17=1.0869       C15-H18=1.0869       H16-C15=1.0869       H17-C15=1.0869       H18-C15=1.0869       
 C  H  Rav=1.0822 sigma=0.0041  Rmin=1.0783  Rmax=1.0869     7
 C  C  Rav=1.4153 sigma=0.0449  Rmin=1.3817  Rmax=1.5032     8
 O  H  Rav=0.9699 sigma=0.0000  Rmin=0.9699  Rmax=0.9699     1
 O  C  Rav=1.2887 sigma=0.0658  Rmin=1.2229  Rmax=1.3544     2
 
 selected bond angles (degree)
 --------------------
C6-C1-C2=120.38                H12-C1-C2=121.28               H12-C1-C6=118.34               C3-C2-C1=120.24                
H9-C2-C1=120.01                H9-C2-C3=119.75                C4-C3-C2=120.01                H10-C3-C2=121.46               
H10-C3-C4=118.53               C5-C4-C3=119.89                O7-C4-C3=117.82                O7-C4-C5=122.29                
C6-C5-C4=120.13                H11-C5-C4=119.30               H11-C5-C6=120.57               C5-C6-C1=119.35                
C13-C6-C1=118.08               C13-C6-C5=122.58               H8-O7-C4=111.10                
 
 selected dihedral angles (degree)
 ---------------------------------
C3-C2-C1-C6=  0.00            C3-C2-C1-H12=180.00           H9-C2-C1-C6=180.00            H9-C2-C1-H12=  0.00           
C4-C3-C2-C1=  0.00            C4-C3-C2-H9=180.00            H10-C3-C2-C1=180.00           H10-C3-C2-H9=  0.00           
C5-C4-C3-C2=  0.00            C5-C4-C3-H10=180.00           O7-C4-C3-C2=180.00            O7-C4-C3-H10=  0.00           
C6-C5-C4-C3=  0.00            C6-C5-C4-O7=180.00            H11-C5-C4-C3=180.00           H11-C5-C4-O7=  0.00           
C5-C6-C1-C2=  0.00            C5-C6-C1-H12=180.00           C13-C6-C1-C2=180.00           C13-C6-C1-H12=  0.00          
C1-C6-C5-C4=  0.00            C1-C6-C5-H11=180.00           C13-C6-C5-C4=180.00           C13-C6-C5-H11=  0.00          
H8-O7-C4-C3=180.00            H8-O7-C4-C5=  0.00            
           -------------------------------------------------
          |                Final Singlepoint                |
           -------------------------------------------------

          ...................................................
          :                      SETUP                      :
          :.................................................:
          :  # basis functions                  48          :
          :  # atomic orbitals                  48          :
          :  # shells                           28          :
          :  # electrons                        52          :
          :  max. iterations                   250          :
          :  Hamiltonian                  GFN2-xTB          :
          :  restarted?                      false          :
          :  GBSA solvation                   true          :
          :  PC potential                    false          :
          :  electronic temp.          300.0000000     K    :
          :  accuracy                    1.0000000          :
          :  -> integral cutoff          0.2500000E+02      :
          :  -> integral neglect         0.1000000E-07      :
          :  -> SCF convergence          0.1000000E-05 Eh   :
          :  -> wf. convergence          0.1000000E-03 e    :
          :  Broyden damping             0.4000000          :
          ...................................................

 iter      E             dE          RMSdq      gap      omega  full diag
   1    -29.7548605 -0.297549E+02  0.139E-04    2.92       0.0  T
   2    -29.7548605 -0.224354E-10  0.902E-05    2.92     261.2  T
   3    -29.7548605  0.136069E-11  0.523E-05    2.92     450.6  T

   *** convergence criteria satisfied after 3 iterations ***

         #    Occupation            Energy/Eh            Energy/eV
      -------------------------------------------------------------
         1        2.0000           -0.7142098             -19.4346
       ...           ...                  ...                  ...
        20        2.0000           -0.4661810             -12.6854
        21        2.0000           -0.4655426             -12.6681
        22        2.0000           -0.4427586             -12.0481
        23        2.0000           -0.4390478             -11.9471
        24        2.0000           -0.4163766             -11.3302
        25        2.0000           -0.3977887             -10.8244
        26        2.0000           -0.3917530             -10.6601 (HOMO)
        27                         -0.2843722              -7.7382 (LUMO)
        28                         -0.2242212              -6.1014
        29                         -0.1947859              -5.3004
        30                         -0.0887579              -2.4152
        31                          0.0647182               1.7611
       ...                                ...                  ...
        48                          0.6572888              17.8857
      -------------------------------------------------------------
                  HL-Gap            0.1073808 Eh            2.9220 eV
             Fermi-level           -0.3380626 Eh           -9.1992 eV

 SCC (total)                   0 d,  0 h,  0 min,  0.008 sec
 SCC setup                      ...        0 min,  0.000 sec (  4.146%)
 Dispersion                     ...        0 min,  0.000 sec (  0.513%)
 classical contributions        ...        0 min,  0.000 sec (  0.172%)
 integral evaluation            ...        0 min,  0.002 sec ( 19.177%)
 iterations                     ...        0 min,  0.002 sec ( 29.253%)
 molecular gradient             ...        0 min,  0.004 sec ( 44.797%)
 printout                       ...        0 min,  0.000 sec (  1.653%)

         :::::::::::::::::::::::::::::::::::::::::::::::::::::
         ::                     SUMMARY                     ::
         :::::::::::::::::::::::::::::::::::::::::::::::::::::
         :: total energy             -29.333299566614 Eh    ::
         :: total w/o Gsasa/hb       -29.328474638851 Eh    ::
         :: gradient norm              0.000673011162 Eh/a0 ::
         :: HOMO-LUMO gap              2.921980222931 eV    ::
         ::.................................................::
         :: SCC energy               -29.754860523960 Eh    ::
         :: -> isotropic ES            0.066820931397 Eh    ::
         :: -> anisotropic ES          0.001136778407 Eh    ::
         :: -> anisotropic XC          0.010074569609 Eh    ::
         :: -> dispersion             -0.014323469483 Eh    ::
         :: -> Gsolv                  -0.017674860984 Eh    ::
         ::    -> Gelec               -0.012849933222 Eh    ::
         ::    -> Gsasa                0.001820697853 Eh    ::
         ::    -> Ghb                 -0.007726385313 Eh    ::
         ::    -> Gshift               0.001080759698 Eh    ::
         :: repulsion energy           0.421521354665 Eh    ::
         :: add. restraining           0.000000000000 Eh    ::
         :: total charge              -0.000000000000 e     ::
         :::::::::::::::::::::::::::::::::::::::::::::::::::::

           ------------------------------------------------- 
          |                Numerical Hessian                |
           ------------------------------------------------- 
step length          :   0.00500
SCC accuracy         :   0.30000
Hessian scale factor :   1.00000
frozen atoms in %    :   0.00000    0
RMS gradient         :   0.00067
estimated CPU  time      0.02 min
estimated wall time      0.02 min

writing file <hessian>.

 projected vibrational frequencies (cm⁻¹)
eigval :       -0.00    -0.00    -0.00    -0.00     0.00     0.00
eigval :       38.07   137.54   186.36   199.80   221.48   357.98
eigval :      375.17   389.19   430.39   463.85   479.23   500.86
eigval :      591.90   614.44   658.05   708.36   792.98   854.86
eigval :      898.97   926.30   927.22   976.35   983.07   992.97
eigval :     1097.63  1110.21  1125.28  1171.73  1208.44  1264.25
eigval :     1275.59  1342.18  1355.32  1436.59  1441.69  1452.30
eigval :     1463.18  1574.56  1587.70  1656.45  3034.96  3037.11
eigval :     3054.58  3091.21  3099.96  3103.99  3112.02  3445.52
           -------------------------------------------------
          |                Property Printout                |
           -------------------------------------------------

    * Orbital Energies and Occupations

         #    Occupation            Energy/Eh            Energy/eV
      -------------------------------------------------------------
         1        2.0000           -0.7142097             -19.4346
       ...           ...                  ...                  ...
        14        2.0000           -0.5189735             -14.1220
        15        2.0000           -0.5142958             -13.9947
        16        2.0000           -0.5124719             -13.9451
        17        2.0000           -0.4919464             -13.3865
        18        2.0000           -0.4781808             -13.0120
        19        2.0000           -0.4734942             -12.8844
        20        2.0000           -0.4661810             -12.6854
        21        2.0000           -0.4655429             -12.6681
        22        2.0000           -0.4427587             -12.0481
        23        2.0000           -0.4390479             -11.9471
        24        2.0000           -0.4163767             -11.3302
        25        2.0000           -0.3977888             -10.8244
        26        2.0000           -0.3917532             -10.6601 (HOMO)
        27                         -0.2843723              -7.7382 (LUMO)
        28                         -0.2242213              -6.1014
        29                         -0.1947859              -5.3004
        30                         -0.0887579              -2.4152
        31                          0.0647183               1.7611
        32                          0.0890335               2.4227
        33                          0.1202017               3.2709
        34                          0.1497290               4.0743
        35                          0.1625250               4.4225
        36                          0.1846865               5.0256
        37                          0.1876680               5.1067
       ...                                ...                  ...
        48                          0.6572888              17.8857
      -------------------------------------------------------------
                  HL-Gap            0.1073809 Eh            2.9220 eV
             Fermi-level           -0.3380627 Eh           -9.1992 eV

     #   Z          covCN         q      C6AA      α(0)
     1   6 C        2.925    -0.033    28.830     8.805
     2   6 C        2.916    -0.033    28.824     8.804
     3   6 C        2.920    -0.052    29.293     8.875
     4   6 C        2.844     0.153    24.687     8.143
     5   6 C        2.919    -0.074    29.851     8.959
     6   6 C        2.970    -0.018    28.457     8.750
     7   8 O        1.659    -0.447    21.782     6.300
     8   1 H        0.804     0.380     0.522     1.135
     9   1 H        0.926     0.056     2.251     2.346
    10   1 H        0.926     0.065     2.143     2.289
    11   1 H        0.926     0.066     2.133     2.284
    12   1 H        0.926     0.052     2.301     2.372
    13   6 C        2.819     0.240    22.985     7.855
    14   8 O        0.858    -0.452    22.745     6.394
    15   6 C        3.754    -0.156    23.585     6.925
    16   1 H        0.925     0.071     2.071     2.250
    17   1 H        0.925     0.092     1.862     2.134
    18   1 H        0.925     0.092     1.862     2.134

 Mol. C6AA /au·bohr⁶  :       3805.834295
 Mol. C8AA /au·bohr⁸  :      91772.853729
 Mol. α(0) /au        :         96.756908


Wiberg/Mayer (AO) data.
largest (>0.10) Wiberg bond orders for each atom

 ---------------------------------------------------------------------------
     #   Z sym  total        # sym  WBO       # sym  WBO       # sym  WBO
 ---------------------------------------------------------------------------
     1   6 C    3.991 --     2 C    1.442     6 C    1.376    12 H    0.967
     2   6 C    3.990 --     3 C    1.453     1 C    1.442     9 H    0.968
     3   6 C    3.989 --     2 C    1.453     4 C    1.346    10 H    0.967
     4   6 C    3.945 --     5 C    1.389     3 C    1.346     7 O    1.090
     5   6 C    3.987 --     4 C    1.389     6 C    1.379    11 H    0.959
     6   6 C    3.988 --     5 C    1.379     1 C    1.376    13 C    1.041
     7   8 O    2.091 --     4 C    1.090     8 H    0.835
     8   1 H    0.855 --     7 O    0.835
     9   1 H    0.996 --     2 C    0.968
    10   1 H    0.995 --     3 C    0.967
    11   1 H    0.996 --     5 C    0.959
    12   1 H    0.997 --     1 C    0.967
    13   6 C    3.907 --    14 O    1.760     6 C    1.041    15 C    1.017
    14   8 O    2.000 --    13 C    1.760
    15   6 C    3.991 --    13 C    1.017    16 H    0.982    17 H    0.953
                            18 H    0.953
    16   1 H    0.995 --    15 C    0.982
    17   1 H    0.992 --    15 C    0.953
    18   1 H    0.992 --    15 C    0.953
 ---------------------------------------------------------------------------

Topologies differ in total number of bonds
Writing topology from bond orders to xtbtopo.mol

molecular dipole:
                 x           y           z       tot (Debye)
 q only:       -1.052      -1.587       0.000
   full:       -0.965      -1.728       0.000       5.030
molecular quadrupole (traceless):
                xx          xy          yy          xz          yz          zz
 q only:      -11.526      -8.071      11.135       0.001       0.000       0.391
  q+dip:      -12.422      -9.583      13.743       0.001       0.001      -1.321
   full:      -14.057      -9.317      12.386       0.001       0.001       1.672

           -------------------------------------------------
          |                Geometry Summary                 |
           -------------------------------------------------

      molecular mass/u    :      136.1482230
   center of mass at/Å    :       -0.0098723       0.0257471      -0.0000057
  moments of inertia/u·Å² :        0.1966765E+03   0.5249709E+03   0.7184915E+03
rotational constants/cm⁻¹ :        0.8571249E-01   0.3211156E-01   0.2346254E-01

 * 16 selected distances

     #   Z          #   Z                                           value/Å
     1   6 C        2   6 C                                       1.3822183
     2   6 C        3   6 C                                       1.3817140
     3   6 C        4   6 C                                       1.3953536
     4   6 C        5   6 C                                       1.3885132
     1   6 C        6   6 C                                       1.3956613 (max)
     5   6 C        6   6 C                                       1.3949698
     4   6 C        7   8 O                                       1.3544350
     7   8 O        8   1 H                                       0.9698678 (min)
     2   6 C        9   1 H                                       1.0785945
     3   6 C       10   1 H                                       1.0783330
     5   6 C       11   1 H                                       1.0784086
     1   6 C       12   1 H                                       1.0794432
    13   6 C       14   8 O                                       1.2228839
    15   6 C       16   1 H                                       1.0868821
    15   6 C       17   1 H                                       1.0868661
    15   6 C       18   1 H                                       1.0868686

 * 4 distinct bonds (by element types)

   Z      Z             #   av. dist./Å        max./Å        min./Å
   1 H    6 C           7     1.0821994     1.0868821     1.0783330
   6 C    6 C           6     1.3897384     1.3956613     1.3817140
   1 H    8 O           1     0.9698678     0.9698678     0.9698678
   6 C    8 O           2     1.2886594     1.3544350     1.2228839

           -------------------------------------------------
          |               Frequency Printout                |
           -------------------------------------------------
 projected vibrational frequencies (cm⁻¹)
eigval :       -0.00    -0.00    -0.00    -0.00     0.00     0.00
eigval :       38.07   137.54   186.36   199.80   221.48   357.98
eigval :      375.17   389.19   430.39   463.85   479.23   500.86
eigval :      591.90   614.44   658.05   708.36   792.98   854.86
eigval :      898.97   926.30   927.22   976.35   983.07   992.97
eigval :     1097.63  1110.21  1125.28  1171.73  1208.44  1264.25
eigval :     1275.59  1342.18  1355.32  1436.59  1441.69  1452.30
eigval :     1463.18  1574.56  1587.70  1656.45  3034.96  3037.11
eigval :     3054.58  3091.21  3099.96  3103.99  3112.02  3445.52
 reduced masses (amu)
   1: 10.36   2: 12.24   3: 12.42   4: 13.64   5: 12.18   6: 12.31   7: 12.11   8: 10.78
   9: 11.68  10:  2.46  11: 10.23  12: 11.24  13: 12.45  14:  8.53  15:  3.01  16: 11.19
  17: 10.13  18: 12.36  19: 11.39  20:  9.72  21:  9.06  22: 11.50  23:  4.63  24:  3.52
  25:  3.89  26: 11.13  27:  3.43  28:  8.43  29:  6.02  30:  9.48  31:  6.46  32:  4.39
  33:  2.89  34:  1.86  35:  7.81  36:  4.84  37: 10.06  38: 11.57  39:  3.34  40: 10.19
  41:  2.60  42:  1.62  43:  8.66  44: 11.57  45: 11.55  46: 13.20  47:  1.96  48:  1.46
  49:  1.75  50:  1.77  51:  1.85  52:  1.83  53:  1.88  54:  1.86
 IR intensities (km·mol⁻¹)
   1:  1.40   2:  0.30   3:  1.20   4:  2.71   5:  0.05   6:  0.35   7:  6.14   8:  4.07
   9:  4.72  10:  2.23  11:  0.00  12:  3.11  13: 20.30  14: 19.68  15:191.09  16:  5.93
  17:  1.49  18:  1.95  19: 33.78  20:  4.24  21:  2.82  22: 22.87  23: 46.61  24:  0.52
  25:  0.17  26: 28.26  27:  0.02  28: 34.97  29: 19.20  30:  8.90  31: 46.94  32:161.91
  33:211.87  34: 24.47  35:265.18  36:158.79  37:362.70  38: 42.07  39: 42.38  40:183.68
  41: 50.64  42: 12.81  43: 57.27  44: 52.06  45: 83.05  46:612.15  47:  4.41  48:  3.66
  49: 27.27  50:  9.33  51: 61.11  52: 27.54  53: 44.76  54:160.71
 Raman intensities (amu)
   1:  0.00   2:  0.00   3:  0.00   4:  0.00   5:  0.00   6:  0.00   7:  0.00   8:  0.00
   9:  0.00  10:  0.00  11:  0.00  12:  0.00  13:  0.00  14:  0.00  15:  0.00  16:  0.00
  17:  0.00  18:  0.00  19:  0.00  20:  0.00  21:  0.00  22:  0.00  23:  0.00  24:  0.00
  25:  0.00  26:  0.00  27:  0.00  28:  0.00  29:  0.00  30:  0.00  31:  0.00  32:  0.00
  33:  0.00  34:  0.00  35:  0.00  36:  0.00  37:  0.00  38:  0.00  39:  0.00  40:  0.00
  41:  0.00  42:  0.00  43:  0.00  44:  0.00  45:  0.00  46:  0.00  47:  0.00  48:  0.00
  49:  0.00  50:  0.00  51:  0.00  52:  0.00  53:  0.00  54:  0.00
 output can be read by thermo (or use thermo option).
 writing <g98.out> molden fake output.
 recommended (thermochemical) frequency scaling factor: 1.0
           -------------------------------------------------
          |             Thermodynamic Functions             |
           -------------------------------------------------

Molecule has the following symmetry elements: (sigma) 
It seems to be the Cs point group
cs  symmetry found (for desy threshold:  0.10E+00) used in thermo

          ...................................................
          :                      SETUP                      :
          :.................................................:
          :  # frequencies                          48      :
          :  # imaginary freq.                       0      :
          :  linear?                             false      :
          :  only rotor calc.                    false      :
          :  symmetry                               cs      :
          :  rotational number                       1      :
          :  scaling factor                  1.0000000      :
          :  rotor cutoff                   50.0000000 cm⁻¹ :
          :  imag. cutoff                  -20.0000000 cm⁻¹ :
          :.................................................:

    mode    ω/cm⁻¹     T·S(HO)/kcal·mol⁻¹    T·S(FR)/kcal·mol⁻¹   T·S(vib)
   ------------------------------------------------------------------------
       1     38.07    -1.59721 ( 25.15%)    -1.13703 ( 74.85%)    -1.25279
       2    137.54    -0.84609 ( 98.28%)    -0.75671 (  1.72%)    -0.84456
       3    186.36    -0.67494 ( 99.48%)    -0.66674 (  0.52%)    -0.67490
       4    199.80    -0.63654 ( 99.61%)    -0.64612 (  0.39%)    -0.63657
       5    221.48    -0.58048 ( 99.74%)    -0.61560 (  0.26%)    -0.58057
   ------------------------------------------------------------------------

   temp. (K)  partition function   enthalpy   heat capacity  entropy
                                   cal/mol     cal/K/mol   cal/K/mol   J/K/mol
 298.15  VIB   188.                 3987.834     29.206     22.625
         ROT  0.658E+06              888.752      2.981     29.604
         INT  0.124E+09             4876.586     32.187     52.229
         TR   0.154E+28             1481.254      4.968     40.619
         TOT                        6357.8399    37.1554    92.8479   388.4756

       T/K    H(0)-H(T)+PV         H(T)/Eh          T*S/Eh         G(T)/Eh
   ------------------------------------------------------------------------
    298.15    0.101319E-01    0.147387E+00    0.441150E-01    0.103271E+00
   ------------------------------------------------------------------------

         :::::::::::::::::::::::::::::::::::::::::::::::::::::
         ::                  THERMODYNAMIC                  ::
         :::::::::::::::::::::::::::::::::::::::::::::::::::::
         :: total free energy         -29.230028069354 Eh   ::
         ::.................................................::
         :: total energy              -29.333299565644 Eh   ::
         :: zero point energy           0.137254664919 Eh   ::
         :: G(RRHO) w/o ZPVE           -0.033983168630 Eh   ::
         :: G(RRHO) contrib.            0.103271496289 Eh   ::
         :::::::::::::::::::::::::::::::::::::::::::::::::::::

optimized geometry written to: xtbopt.xyz


           -------------------------------------------------
          | TOTAL ENERGY              -29.333299565644 Eh   |
          | TOTAL ENTHALPY            -29.185913037992 Eh   |
          | TOTAL FREE ENERGY         -29.230028069354 Eh   |
          | GRADIENT NORM               0.000672767119 Eh/α |
          | HOMO-LUMO GAP               2.921982988472 eV   |
           -------------------------------------------------

------------------------------------------------------------------------
 * finished run on 2021/11/15 at 09:36:10.265     
------------------------------------------------------------------------
 total:
 * wall-time:     0 d,  0 h,  0 min,  1.030 sec
 *  cpu-time:     0 d,  0 h,  0 min,  0.953 sec
 * ratio c/w:     0.925 speedup
 SCF:
 * wall-time:     0 d,  0 h,  0 min,  0.011 sec
 *  cpu-time:     0 d,  0 h,  0 min,  0.000 sec
 * ratio c/w:     0.000 speedup
 ANC optimizer:
 * wall-time:     0 d,  0 h,  0 min,  0.101 sec
 *  cpu-time:     0 d,  0 h,  0 min,  0.047 sec
 * ratio c/w:     0.465 speedup
 analytical hessian:
 * wall-time:     0 d,  0 h,  0 min,  0.881 sec
 *  cpu-time:     0 d,  0 h,  0 min,  0.875 sec
 * ratio c/w:     0.993 speedup

