 Entering Gaussian System
 *********************************************
 Gaussian 98:
 frequency output generated by the xtb code
 *********************************************
                         Standard orientation:
 --------------------------------------------------------------------
  Center     Atomic     Atomic              Coordinates (Angstroms)
  Number     Number      Type              X           Y           Z
 --------------------------------------------------------------------
    1          6             0        0.114848    1.524727    0.000017
    2          6             0       -1.236456    1.815424    0.000028
    3          6             0       -2.167861    0.794827    0.000015
    4          6             0       -1.745868   -0.535185   -0.000012
    5          6             0       -0.389166   -0.830700   -0.000024
    6          6             0        0.551710    0.199200   -0.000007
    7          8             0       -2.696442   -1.500019   -0.000025
    8          1             0       -2.296962   -2.383795   -0.000037
    9          1             0       -1.567355    2.842007    0.000048
   10          1             0       -3.226662    0.999136    0.000024
   11          1             0       -0.073575   -1.861897   -0.000054
   12          1             0        0.856756    2.308799    0.000030
   13          6             0        2.010393   -0.053698   -0.000013
   14          8             0        2.811118    0.870577   -0.000091
   15          6             0        2.475205   -1.483235    0.000066
   16          1             0        3.561867   -1.505084    0.000195
   17          1             0        2.102883   -1.993119    0.884754
   18          1             0        2.103110   -1.993112   -0.884725
 --------------------------------------------------------------------
     1 basis functions        1 primitive gaussians
     1 alpha electrons        1 beta electrons
 
 Harmonic frequencies (cm**-1), IR intensities (km*mol⁻¹),
 Raman scattering activities (A**4/amu), Raman depolarization ratios,
 reduced masses (AMU), force constants (mDyne/A) and normal coordinates:
                      1                      2                      3
                        a                      a                      a 
 Frequencies --    38.0697               137.5401               186.3578
 Red. masses --    12.1125                10.7752                11.6759
 Frc consts  --     0.0000                 0.0000                 0.0000
 IR Inten    --     6.1407                 4.0721                 4.7162
 Raman Activ --     0.0000                 0.0000                 0.0000
 Depolar     --     0.0000                 0.0000                 0.0000
 Atom AN      X      Y      Z        X      Y      Z        X      Y      Z
   1   6     0.00   0.00   0.19    -0.00   0.00  -0.29    -0.11   0.24  -0.00
   2   6     0.00  -0.00   0.25    -0.00  -0.00   0.09    -0.16   0.05   0.00
   3   6     0.00  -0.00   0.12     0.00  -0.00   0.31    -0.07  -0.05   0.00
   4   6     0.00   0.00  -0.08     0.00  -0.00  -0.04     0.09   0.01  -0.00
   5   6     0.00   0.00  -0.11    -0.00   0.00  -0.48     0.11   0.21  -0.00
   6   6     0.00   0.00   0.01    -0.00   0.00  -0.45     0.02   0.28  -0.00
   7   8     0.00   0.00  -0.26     0.00  -0.00   0.23     0.37  -0.26  -0.00
   8   1     0.00   0.00  -0.09     0.00  -0.00  -0.02     0.16  -0.03  -0.00
   9   1    -0.00  -0.00   0.12    -0.00  -0.00   0.09    -0.08   0.00   0.00
  10   1     0.00  -0.00   0.05     0.00  -0.00   0.22    -0.03  -0.04   0.00
  11   1     0.00   0.00  -0.08    -0.00   0.00  -0.20     0.05   0.07   0.00
  12   1    -0.00   0.00   0.08    -0.00   0.00  -0.10    -0.06   0.10  -0.00
  13   6    -0.00   0.00  -0.05     0.00   0.00  -0.06    -0.03   0.02  -0.00
  14   8    -0.00  -0.00  -0.62     0.00   0.00   0.33     0.28  -0.26   0.00
  15   6    -0.00   0.00   0.51    -0.00   0.00   0.21    -0.47  -0.14   0.00
  16   1    -0.00   0.00   0.22    -0.00  -0.00   0.20    -0.14  -0.14  -0.00
  17   1    -0.07   0.07   0.16    -0.11   0.01   0.02    -0.18  -0.01   0.00
  18   1     0.07  -0.07   0.16     0.11  -0.01   0.02    -0.18  -0.01  -0.00
                      4                      5                      6
                        a                      a                      a 
 Frequencies --   199.7976               221.4818               357.9761
 Red. masses --     2.4565                10.2279                11.2394
 Frc consts  --     0.0000                 0.0000                 0.0000
 IR Inten    --     2.2319                 0.0002                 3.1096
 Raman Activ --     0.0000                 0.0000                 0.0000
 Depolar     --     0.0000                 0.0000                 0.0000
 Atom AN      X      Y      Z        X      Y      Z        X      Y      Z
   1   6     0.00  -0.00  -0.16     0.00  -0.00   0.42     0.21  -0.07   0.00
   2   6     0.00  -0.00   0.06     0.00  -0.00   0.02     0.27   0.00  -0.00
   3   6     0.00   0.00   0.17     0.00   0.00  -0.41     0.32  -0.04   0.00
   4   6    -0.00  -0.00   0.02    -0.00  -0.00  -0.20     0.16  -0.09   0.00
   5   6    -0.00  -0.00   0.02    -0.00  -0.00  -0.39     0.10  -0.20   0.00
   6   6    -0.00  -0.00  -0.09    -0.00  -0.00  -0.05    -0.03  -0.11   0.00
   7   8    -0.00   0.00  -0.18    -0.00   0.00   0.47     0.08   0.02  -0.00
   8   1    -0.00   0.00  -0.05    -0.00   0.00   0.13    -0.01  -0.01  -0.00
   9   1     0.00  -0.00   0.03     0.00  -0.00   0.04     0.07  -0.00  -0.00
  10   1     0.00   0.00   0.09     0.00   0.00  -0.17     0.09  -0.00  -0.00
  11   1    -0.00  -0.00   0.03    -0.00  -0.00  -0.16     0.03  -0.06  -0.00
  12   1     0.00  -0.00  -0.09     0.00  -0.00   0.28     0.10  -0.06  -0.00
  13   6     0.00   0.00  -0.04     0.00   0.00  -0.03    -0.13   0.11  -0.00
  14   8    -0.00   0.00   0.09    -0.00   0.00   0.01    -0.37   0.32  -0.00
  15   6     0.00   0.00   0.07     0.00   0.00   0.03    -0.49   0.05  -0.00
  16   1     0.00   0.00  -0.46     0.00   0.00  -0.14    -0.14  -0.13   0.00
  17   1     0.42   0.21   0.32     0.13   0.07   0.11    -0.21   0.06   0.00
  18   1    -0.42  -0.21   0.32    -0.13  -0.07   0.11    -0.21   0.06  -0.00
                      7                      8                      9
                        a                      a                      a 
 Frequencies --   375.1698               389.1852               430.3878
 Red. masses --    12.4537                 8.5254                 3.0054
 Frc consts  --     0.0000                 0.0000                 0.0000
 IR Inten    --    20.2961                19.6803               191.0851
 Raman Activ --     0.0000                 0.0000                 0.0000
 Depolar     --     0.0000                 0.0000                 0.0000
 Atom AN      X      Y      Z        X      Y      Z        X      Y      Z
   1   6    -0.09  -0.03   0.00    -0.00   0.00   0.11    -0.00   0.00   0.04
   2   6    -0.13  -0.15   0.00    -0.00  -0.00  -0.46    -0.00   0.00  -0.12
   3   6     0.03  -0.24  -0.00     0.00  -0.00   0.32     0.00  -0.00   0.17
   4   6     0.10  -0.20   0.00     0.00  -0.00   0.10     0.00  -0.00   0.04
   5   6     0.14  -0.13   0.00     0.00  -0.00  -0.34     0.00   0.00  -0.17
   6   6     0.09   0.04  -0.00     0.00   0.00   0.37    -0.00   0.00   0.08
   7   8    -0.45   0.31  -0.00    -0.00   0.00   0.05    -0.00   0.00  -0.26
   8   1    -0.28   0.00   0.00    -0.00   0.00  -0.32    -0.00  -0.00   0.90
   9   1    -0.07  -0.05   0.00    -0.00  -0.00  -0.31    -0.00   0.00  -0.07
  10   1    -0.00  -0.12  -0.00     0.00  -0.00   0.16     0.00  -0.00   0.09
  11   1     0.06  -0.03   0.00     0.00   0.00  -0.27     0.00   0.00  -0.11
  12   1    -0.06   0.02   0.00    -0.00   0.00   0.04    -0.00   0.00   0.02
  13   6     0.19   0.22  -0.00     0.00   0.00   0.26    -0.00  -0.00   0.07
  14   8     0.47   0.05  -0.00     0.00  -0.00  -0.13    -0.00  -0.00  -0.03
  15   6    -0.18   0.11  -0.00     0.00   0.00  -0.03     0.00  -0.00  -0.01
  16   1    -0.05  -0.08   0.00     0.00  -0.00  -0.09     0.00  -0.00  -0.02
  17   1    -0.10   0.07   0.00     0.06  -0.06  -0.02     0.01  -0.02  -0.01
  18   1    -0.10   0.07  -0.00    -0.06   0.06  -0.02    -0.01   0.02  -0.01
                     10                     11                     12
                        a                      a                      a 
 Frequencies --   463.8536               479.2305               500.8618
 Red. masses --    11.1892                10.1279                12.3587
 Frc consts  --     0.0000                 0.0000                 0.0000
 IR Inten    --     5.9308                 1.4894                 1.9468
 Raman Activ --     0.0000                 0.0000                 0.0000
 Depolar     --     0.0000                 0.0000                 0.0000
 Atom AN      X      Y      Z        X      Y      Z        X      Y      Z
   1   6    -0.12   0.26  -0.00     0.00  -0.00  -0.34    -0.31  -0.35  -0.00
   2   6    -0.15   0.12   0.00     0.00  -0.00   0.23    -0.26   0.03   0.00
   3   6     0.23  -0.18  -0.00    -0.00   0.00  -0.04    -0.24   0.10   0.00
   4   6     0.33  -0.13  -0.00    -0.00   0.00  -0.52     0.25   0.27  -0.00
   5   6     0.28  -0.09  -0.00    -0.00   0.00  -0.08     0.11  -0.19  -0.00
   6   6    -0.11   0.21   0.00     0.00  -0.00   0.24     0.06  -0.23   0.00
   7   8     0.01   0.31   0.00    -0.00  -0.00   0.19     0.38   0.39   0.00
   8   1    -0.12   0.02   0.00     0.00  -0.00   0.06     0.09   0.09   0.00
   9   1    -0.12   0.01   0.00     0.00  -0.00   0.23     0.01   0.03   0.00
  10   1     0.04  -0.16   0.00    -0.00   0.00   0.14    -0.09  -0.08   0.00
  11   1     0.17   0.01   0.00    -0.00  -0.00   0.13    -0.07  -0.09   0.00
  12   1    -0.04   0.08  -0.00     0.00  -0.00  -0.14    -0.09  -0.09  -0.00
  13   6    -0.28  -0.17   0.00     0.00   0.00   0.47     0.11  -0.02   0.00
  14   8    -0.31  -0.23  -0.00     0.00   0.00  -0.18    -0.03   0.11  -0.00
  15   6     0.11  -0.10  -0.00    -0.00   0.00  -0.02    -0.03  -0.09   0.00
  16   1     0.04   0.15  -0.00    -0.00  -0.00  -0.12    -0.01  -0.10   0.00
  17   1     0.12  -0.09   0.00     0.08  -0.16  -0.07    -0.05   0.00  -0.00
  18   1     0.12  -0.09  -0.00    -0.08   0.16  -0.07    -0.05   0.00   0.00
                     13                     14                     15
                        a                      a                      a 
 Frequencies --   591.8954               614.4443               658.0524
 Red. masses --    11.3941                 9.7187                 9.0572
 Frc consts  --     0.0000                 0.0000                 0.0000
 IR Inten    --    33.7821                 4.2392                 2.8249
 Raman Activ --     0.0000                 0.0000                 0.0000
 Depolar     --     0.0000                 0.0000                 0.0000
 Atom AN      X      Y      Z        X      Y      Z        X      Y      Z
   1   6    -0.08  -0.12   0.00    -0.00  -0.00   0.07     0.00   0.00   0.30
   2   6     0.03   0.25   0.00     0.00   0.00  -0.14     0.00  -0.00  -0.34
   3   6     0.16   0.12  -0.00     0.00   0.00   0.19    -0.00  -0.00   0.23
   4   6     0.02   0.01   0.00    -0.00   0.00  -0.54     0.00   0.00  -0.30
   5   6    -0.08  -0.33  -0.00    -0.00  -0.00   0.11     0.00   0.00   0.26
   6   6    -0.26  -0.15  -0.00    -0.00  -0.00   0.38     0.00   0.00  -0.52
   7   8     0.11  -0.07  -0.00     0.00  -0.00   0.11     0.00   0.00   0.01
   8   1     0.07   0.00  -0.00     0.00  -0.00   0.03    -0.00   0.00  -0.01
   9   1     0.03   0.07   0.00     0.00   0.00  -0.04    -0.00  -0.00   0.04
  10   1     0.04   0.02  -0.00     0.00  -0.00   0.21    -0.00  -0.00   0.25
  11   1    -0.04  -0.10  -0.00    -0.00  -0.00   0.10     0.00  -0.00   0.29
  12   1     0.06  -0.11   0.00     0.00  -0.00  -0.04    -0.00   0.00   0.30
  13   6    -0.28   0.18   0.00    -0.00   0.00  -0.48     0.00  -0.00   0.18
  14   8     0.32  -0.34  -0.00     0.00  -0.00   0.15    -0.00   0.00  -0.06
  15   6    -0.08   0.43  -0.00    -0.00   0.00  -0.06     0.00  -0.00   0.03
  16   1    -0.02   0.29  -0.00    -0.00   0.00   0.14     0.00  -0.00  -0.05
  17   1     0.06   0.07   0.00    -0.11   0.24   0.08     0.04  -0.11  -0.04
  18   1     0.06   0.07  -0.00     0.11  -0.24   0.08    -0.04   0.11  -0.04
                     16                     17                     18
                        a                      a                      a 
 Frequencies --   708.3554               792.9850               854.8609
 Red. masses --    11.4953                 4.6291                 3.5173
 Frc consts  --     0.0000                 0.0000                 0.0000
 IR Inten    --    22.8719                46.6079                 0.5216
 Raman Activ --     0.0000                 0.0000                 0.0000
 Depolar     --     0.0000                 0.0000                 0.0000
 Atom AN      X      Y      Z        X      Y      Z        X      Y      Z
   1   6    -0.23   0.08   0.00     0.00   0.00   0.18    -0.00   0.00  -0.20
   2   6    -0.16   0.60   0.00    -0.00  -0.00   0.15    -0.00   0.00  -0.12
   3   6     0.25   0.14   0.00    -0.00  -0.00   0.24    -0.00   0.00  -0.09
   4   6    -0.02  -0.09   0.00    -0.00   0.00  -0.32    -0.00   0.00  -0.04
   5   6    -0.00  -0.23   0.00     0.00  -0.00   0.26     0.00  -0.00   0.40
   6   6    -0.09  -0.03  -0.00    -0.00   0.00  -0.19     0.00  -0.00   0.02
   7   8    -0.16  -0.28  -0.00    -0.00  -0.00   0.07    -0.00  -0.00   0.01
   8   1    -0.01  -0.05  -0.00     0.00   0.00   0.03     0.00  -0.00   0.00
   9   1    -0.07   0.16   0.00    -0.00   0.00  -0.39     0.00  -0.00   0.34
  10   1     0.06  -0.02   0.00    -0.00   0.00  -0.43    -0.00   0.00   0.14
  11   1     0.01  -0.06   0.00     0.00   0.00  -0.38     0.00   0.00  -0.73
  12   1     0.00  -0.04   0.00     0.00   0.00  -0.41    -0.00  -0.00   0.31
  13   6     0.24  -0.00   0.00     0.00  -0.00   0.05    -0.00  -0.00  -0.00
  14   8     0.07   0.21  -0.00    -0.00   0.00  -0.01    -0.00  -0.00   0.00
  15   6     0.12  -0.29   0.00     0.00  -0.00   0.04     0.00   0.00  -0.00
  16   1     0.03  -0.23   0.00     0.00  -0.00  -0.05     0.00   0.00  -0.02
  17   1    -0.03  -0.04  -0.00     0.03  -0.07  -0.02     0.00   0.00   0.00
  18   1    -0.03  -0.04   0.00    -0.03   0.07  -0.02    -0.00  -0.00   0.00
                     19                     20                     21
                        a                      a                      a 
 Frequencies --   898.9718               926.2986               927.2249
 Red. masses --     3.8853                11.1334                 3.4309
 Frc consts  --     0.0000                 0.0000                 0.0000
 IR Inten    --     0.1710                28.2586                 0.0210
 Raman Activ --     0.0000                 0.0000                 0.0000
 Depolar     --     0.0000                 0.0000                 0.0000
 Atom AN      X      Y      Z        X      Y      Z        X      Y      Z
   1   6    -0.00   0.00  -0.33     0.13   0.32   0.00    -0.00  -0.00   0.20
   2   6     0.00   0.00  -0.00     0.03  -0.21  -0.00    -0.00   0.00  -0.38
   3   6     0.00  -0.00   0.37     0.10  -0.18   0.00    -0.00   0.00   0.16
   4   6     0.00   0.00  -0.08    -0.12  -0.01   0.00     0.00   0.00   0.05
   5   6     0.00   0.00  -0.07    -0.34  -0.23  -0.00     0.00   0.00  -0.08
   6   6     0.00  -0.00   0.07    -0.43   0.01   0.00     0.00  -0.00   0.04
   7   8    -0.00  -0.00   0.02     0.27   0.26   0.00    -0.00  -0.00   0.00
   8   1    -0.00  -0.00   0.00     0.13   0.09  -0.00    -0.00  -0.00  -0.01
   9   1     0.00   0.00   0.01    -0.19  -0.12   0.00     0.00   0.00   0.71
  10   1    -0.00   0.00  -0.63     0.04  -0.02  -0.00    -0.00   0.00  -0.34
  11   1    -0.00  -0.00   0.14    -0.15  -0.08  -0.00     0.00   0.00   0.03
  12   1    -0.00  -0.00   0.56     0.06   0.06  -0.00    -0.00  -0.00  -0.40
  13   6    -0.00   0.00   0.01     0.00   0.16   0.00    -0.00  -0.00  -0.00
  14   8     0.00  -0.00  -0.00     0.17   0.13  -0.00    -0.00  -0.00   0.00
  15   6    -0.00   0.00  -0.03     0.14  -0.22   0.00    -0.00   0.00   0.00
  16   1    -0.00   0.00   0.02     0.04  -0.18   0.00    -0.00   0.00  -0.00
  17   1    -0.02   0.04   0.01    -0.01  -0.03  -0.01     0.00  -0.00  -0.00
  18   1     0.02  -0.04   0.01    -0.01  -0.03   0.01    -0.00   0.00  -0.00
                     22                     23                     24
                        a                      a                      a 
 Frequencies --   976.3486               983.0651               992.9743
 Red. masses --     8.4266                 6.0153                 9.4754
 Frc consts  --     0.0000                 0.0000                 0.0000
 IR Inten    --    34.9696                19.1966                 8.8954
 Raman Activ --     0.0000                 0.0000                 0.0000
 Depolar     --     0.0000                 0.0000                 0.0000
 Atom AN      X      Y      Z        X      Y      Z        X      Y      Z
   1   6    -0.13  -0.09  -0.00     0.00   0.00  -0.04     0.24   0.34   0.00
   2   6    -0.07   0.07  -0.00     0.00  -0.00  -0.02    -0.01   0.00   0.00
   3   6     0.34  -0.19  -0.00    -0.00   0.00   0.01    -0.41   0.16   0.00
   4   6    -0.06  -0.05  -0.00     0.00   0.00  -0.02     0.09   0.06   0.00
   5   6    -0.20   0.30  -0.00     0.00  -0.00  -0.02     0.20  -0.40  -0.00
   6   6     0.02  -0.06   0.00    -0.00   0.00   0.15    -0.03   0.02  -0.00
   7   8     0.08   0.10   0.00    -0.00  -0.00   0.00    -0.07  -0.09  -0.00
   8   1     0.04   0.03   0.00    -0.00  -0.00   0.00    -0.06  -0.04  -0.00
   9   1    -0.13  -0.02   0.00     0.00   0.00   0.02     0.01   0.01  -0.00
  10   1     0.08  -0.11   0.00    -0.00   0.00   0.01    -0.12   0.04  -0.00
  11   1    -0.13   0.06   0.00     0.00  -0.00   0.04     0.03  -0.12   0.00
  12   1    -0.03  -0.03   0.00     0.00   0.00   0.06     0.06   0.10  -0.00
  13   6     0.13  -0.25  -0.00    -0.00   0.00  -0.50     0.07  -0.17   0.00
  14   8    -0.14  -0.21   0.00     0.00   0.00   0.10    -0.11  -0.15  -0.00
  15   6     0.20   0.35   0.00    -0.00  -0.00   0.40     0.17   0.23  -0.00
  16   1     0.04  -0.27  -0.00     0.00   0.00  -0.20     0.03  -0.25   0.00
  17   1    -0.22   0.25  -0.02     0.15  -0.46  -0.11    -0.17   0.20  -0.01
  18   1    -0.22   0.25   0.02    -0.15   0.46  -0.11    -0.17   0.20   0.01
                     25                     26                     27
                        a                      a                      a 
 Frequencies --  1097.6254              1110.2074              1125.2810
 Red. masses --     6.4610                 4.3883                 2.8920
 Frc consts  --     0.0000                 0.0000                 0.0000
 IR Inten    --    46.9426               161.9092               211.8675
 Raman Activ --     0.0000                 0.0000                 0.0000
 Depolar     --     0.0000                 0.0000                 0.0000
 Atom AN      X      Y      Z        X      Y      Z        X      Y      Z
   1   6     0.18   0.23   0.00     0.23  -0.01  -0.00     0.11  -0.05  -0.00
   2   6    -0.11   0.13   0.00    -0.06   0.21   0.00     0.03   0.07   0.00
   3   6     0.02  -0.10  -0.00    -0.21  -0.05  -0.00    -0.10  -0.12  -0.00
   4   6    -0.05   0.09   0.00     0.08  -0.12  -0.00    -0.02   0.10   0.00
   5   6    -0.09  -0.12  -0.00    -0.16   0.19   0.00     0.06   0.08   0.00
   6   6     0.31  -0.16  -0.00    -0.05  -0.02   0.00    -0.12   0.00   0.00
   7   8    -0.06  -0.00  -0.00     0.23   0.01   0.00    -0.25   0.00  -0.00
   8   1     0.18   0.08   0.00    -0.51  -0.25  -0.00     0.52   0.26   0.00
   9   1    -0.31  -0.05   0.00     0.06   0.09   0.00     0.11   0.05   0.00
  10   1    -0.04  -0.25  -0.00    -0.14  -0.39  -0.00    -0.13  -0.52  -0.00
  11   1    -0.34  -0.14  -0.00    -0.16   0.02  -0.00     0.29   0.11   0.00
  12   1     0.01   0.11  -0.00     0.34  -0.25  -0.00     0.24  -0.21   0.00
  13   6     0.25  -0.24   0.00    -0.04   0.04   0.00    -0.05   0.06  -0.00
  14   8    -0.05   0.06  -0.00     0.04   0.03  -0.00     0.02  -0.00  -0.00
  15   6    -0.27   0.11  -0.00     0.01  -0.04   0.00     0.04  -0.03  -0.00
  16   1    -0.06   0.36  -0.00     0.00   0.01  -0.00     0.01  -0.08   0.00
  17   1     0.10  -0.07   0.01     0.00  -0.02  -0.01    -0.01   0.01   0.00
  18   1     0.10  -0.07  -0.01     0.00  -0.02   0.01    -0.01   0.01  -0.00
                     28                     29                     30
                        a                      a                      a 
 Frequencies --  1171.7268              1208.4423              1264.2525
 Red. masses --     1.8592                 7.8125                 4.8400
 Frc consts  --     0.0000                 0.0000                 0.0000
 IR Inten    --    24.4680               265.1798               158.7863
 Raman Activ --     0.0000                 0.0000                 0.0000
 Depolar     --     0.0000                 0.0000                 0.0000
 Atom AN      X      Y      Z        X      Y      Z        X      Y      Z
   1   6    -0.04   0.04   0.00     0.02   0.04   0.00    -0.22   0.12   0.00
   2   6     0.13  -0.02  -0.00    -0.02   0.07   0.00    -0.02  -0.12  -0.00
   3   6     0.08   0.01  -0.00    -0.07  -0.01   0.00    -0.00  -0.18  -0.00
   4   6     0.05   0.04   0.00    -0.21  -0.29  -0.00     0.13  -0.01  -0.00
   5   6    -0.13  -0.06  -0.00    -0.19  -0.09  -0.00     0.13   0.03   0.00
   6   6     0.04   0.03   0.00    -0.17   0.00  -0.00    -0.20   0.27   0.00
   7   8    -0.01  -0.05  -0.00     0.21   0.19   0.00    -0.09  -0.01   0.00
   8   1    -0.03  -0.02  -0.00    -0.03   0.01   0.00     0.12   0.06   0.00
   9   1     0.53   0.15   0.00     0.30   0.12   0.00     0.44   0.11   0.00
  10   1    -0.06  -0.43  -0.00    -0.02   0.03  -0.00     0.05   0.21   0.00
  11   1    -0.25  -0.09  -0.00     0.48   0.14   0.00    -0.43  -0.14  -0.00
  12   1    -0.44   0.41   0.00    -0.09   0.10   0.00     0.27  -0.28  -0.00
  13   6    -0.10   0.07  -0.00     0.38  -0.31   0.00     0.22  -0.18   0.00
  14   8     0.01  -0.01   0.00    -0.01   0.07  -0.00    -0.01   0.04  -0.00
  15   6     0.05  -0.03   0.00    -0.18   0.12  -0.00    -0.04   0.02   0.00
  16   1     0.01  -0.04   0.00    -0.04   0.19  -0.00    -0.01   0.13  -0.00
  17   1    -0.02  -0.00  -0.01     0.05   0.01   0.03    -0.01  -0.01  -0.01
  18   1    -0.02  -0.00   0.01     0.05   0.01  -0.03    -0.01  -0.01   0.01
                     31                     32                     33
                        a                      a                      a 
 Frequencies --  1275.5915              1342.1826              1355.3180
 Red. masses --    10.0631                11.5670                 3.3368
 Frc consts  --     0.0000                 0.0000                 0.0000
 IR Inten    --   362.6967                42.0685                42.3787
 Raman Activ --     0.0000                 0.0000                 0.0000
 Depolar     --     0.0000                 0.0000                 0.0000
 Atom AN      X      Y      Z        X      Y      Z        X      Y      Z
   1   6    -0.08  -0.09  -0.00    -0.30   0.27   0.00    -0.04   0.02   0.00
   2   6     0.12  -0.25  -0.00     0.38   0.12   0.00     0.05   0.01  -0.00
   3   6     0.15   0.22   0.00    -0.09  -0.37  -0.00    -0.00  -0.02  -0.00
   4   6     0.27   0.43   0.00    -0.30   0.28   0.00    -0.05   0.03   0.00
   5   6    -0.04   0.02   0.00     0.35   0.11   0.00     0.04  -0.00  -0.00
   6   6    -0.43   0.10   0.00    -0.11  -0.42  -0.00     0.01  -0.03   0.00
   7   8    -0.10  -0.22  -0.00     0.06   0.00   0.00     0.01   0.00  -0.00
   8   1    -0.20  -0.12  -0.00    -0.16  -0.07  -0.00    -0.02  -0.01  -0.00
   9   1    -0.19  -0.15  -0.00     0.01   0.00   0.00    -0.02  -0.01  -0.00
  10   1    -0.01  -0.23  -0.00    -0.01  -0.01  -0.00    -0.00  -0.02  -0.00
  11   1     0.12   0.06  -0.00     0.05   0.02  -0.00     0.01  -0.00   0.00
  12   1    -0.06   0.00   0.00    -0.01   0.00   0.00     0.00  -0.01   0.00
  13   6     0.28  -0.18   0.00     0.01   0.01   0.00    -0.04   0.04  -0.00
  14   8     0.02   0.05  -0.00     0.03   0.01  -0.00     0.02   0.01  -0.00
  15   6    -0.08   0.05  -0.00    -0.03   0.05  -0.00     0.07  -0.44  -0.00
  16   1    -0.02   0.10  -0.00    -0.01  -0.05  -0.00     0.02   0.44   0.00
  17   1     0.02  -0.00   0.01     0.03  -0.04  -0.01    -0.11   0.47   0.25
  18   1     0.02  -0.00  -0.01     0.03  -0.04   0.01    -0.11   0.47  -0.25
                     34                     35                     36
                        a                      a                      a 
 Frequencies --  1436.5930              1441.6855              1452.2988
 Red. masses --    10.1876                 2.5951                 1.6167
 Frc consts  --     0.0000                 0.0000                 0.0000
 IR Inten    --   183.6754                50.6368                12.8105
 Raman Activ --     0.0000                 0.0000                 0.0000
 Depolar     --     0.0000                 0.0000                 0.0000
 Atom AN      X      Y      Z        X      Y      Z        X      Y      Z
   1   6    -0.29   0.02   0.00    -0.00   0.09   0.00    -0.00   0.00  -0.00
   2   6     0.13  -0.19  -0.00    -0.14  -0.06  -0.00    -0.00  -0.00  -0.00
   3   6     0.16   0.25   0.00     0.08  -0.05  -0.00     0.00  -0.00  -0.00
   4   6    -0.49   0.02   0.00     0.05   0.12   0.00     0.00   0.00  -0.00
   5   6     0.07  -0.29  -0.00    -0.11  -0.03  -0.00    -0.00  -0.00   0.00
   6   6     0.31   0.38   0.00     0.09  -0.04  -0.00     0.00  -0.00   0.01
   7   8     0.15   0.05   0.00    -0.01  -0.04  -0.00    -0.00  -0.00   0.00
   8   1    -0.09  -0.05  -0.00    -0.04  -0.02  -0.00    -0.00  -0.00  -0.00
   9   1    -0.03  -0.08  -0.00     0.10   0.03  -0.00     0.00   0.00   0.00
  10   1    -0.03  -0.28  -0.00     0.03   0.04   0.00     0.00   0.00   0.00
  11   1     0.04  -0.08   0.00     0.01   0.01   0.00     0.00   0.00  -0.01
  12   1     0.15  -0.21  -0.00     0.07  -0.04  -0.00     0.00  -0.00   0.00
  13   6    -0.02  -0.01  -0.00     0.02   0.05  -0.00     0.00   0.00  -0.03
  14   8    -0.06  -0.04   0.00    -0.05  -0.07   0.00    -0.00  -0.00  -0.00
  15   6     0.01   0.02   0.00    -0.22   0.05  -0.00     0.00   0.00  -0.23
  16   1     0.00  -0.04  -0.00    -0.03  -0.42  -0.00    -0.00  -0.00   0.73
  17   1     0.00  -0.01  -0.01     0.45   0.19   0.30     0.43  -0.12   0.08
  18   1     0.00  -0.01   0.01     0.45   0.19  -0.30    -0.43   0.12   0.08
                     37                     38                     39
                        a                      a                      a 
 Frequencies --  1463.1831              1574.5649              1587.7005
 Red. masses --     8.6609                11.5676                11.5469
 Frc consts  --     0.0000                 0.0000                 0.0000
 IR Inten    --    57.2679                52.0573                83.0546
 Raman Activ --     0.0000                 0.0000                 0.0000
 Depolar     --     0.0000                 0.0000                 0.0000
 Atom AN      X      Y      Z        X      Y      Z        X      Y      Z
   1   6     0.01  -0.28  -0.00     0.38  -0.35  -0.00    -0.20  -0.07   0.00
   2   6     0.38   0.19   0.00    -0.23   0.17   0.00     0.43   0.21   0.00
   3   6    -0.22   0.10   0.00     0.06  -0.40  -0.00    -0.23  -0.36  -0.00
   4   6    -0.07  -0.37  -0.00    -0.31   0.38   0.00     0.29   0.14   0.00
   5   6     0.26   0.10   0.00     0.17  -0.14  -0.00    -0.46  -0.19  -0.00
   6   6    -0.27   0.22   0.00    -0.10   0.34   0.00     0.24   0.30   0.00
   7   8     0.02   0.10   0.00     0.05  -0.02  -0.00    -0.03  -0.03  -0.00
   8   1     0.10   0.06   0.00    -0.10  -0.05  -0.00    -0.00   0.00   0.00
   9   1    -0.27  -0.07  -0.00     0.03   0.07   0.00    -0.10  -0.01  -0.00
  10   1    -0.09  -0.08  -0.00     0.05   0.08   0.00    -0.02   0.11   0.00
  11   1    -0.28  -0.09  -0.00     0.00  -0.05  -0.00     0.13   0.03   0.00
  12   1    -0.17   0.08   0.00    -0.09   0.09   0.00    -0.02  -0.05  -0.00
  13   6     0.11  -0.03  -0.00     0.09   0.09  -0.00    -0.02  -0.02  -0.00
  14   8    -0.03  -0.02   0.00    -0.08  -0.08   0.00    -0.01  -0.00   0.00
  15   6    -0.08   0.02  -0.00     0.01  -0.02   0.00     0.01   0.01   0.00
  16   1    -0.01  -0.12   0.00     0.00   0.02  -0.00     0.00  -0.01  -0.00
  17   1     0.15   0.05   0.09    -0.01  -0.01  -0.01    -0.01  -0.00  -0.01
  18   1     0.15   0.05  -0.09    -0.01  -0.01   0.01    -0.01  -0.00   0.01
                     40                     41                     42
                        a                      a                      a 
 Frequencies --  1656.4451              3034.9615              3037.1095
 Red. masses --    13.1976                 1.9604                 1.4603
 Frc consts  --     0.0000                 0.0000                 0.0000
 IR Inten    --   612.1550                 4.4094                 3.6569
 Raman Activ --     0.0000                 0.0000                 0.0000
 Depolar     --     0.0000                 0.0000                 0.0000
 Atom AN      X      Y      Z        X      Y      Z        X      Y      Z
   1   6    -0.06   0.08   0.00     0.00   0.00  -0.00    -0.00  -0.00  -0.00
   2   6     0.04  -0.02  -0.00    -0.00   0.00   0.00     0.00  -0.00   0.00
   3   6    -0.02   0.05   0.00    -0.00   0.00   0.00     0.00  -0.00   0.00
   4   6     0.06  -0.06  -0.00     0.00   0.00   0.00    -0.00  -0.00   0.00
   5   6    -0.07   0.01   0.00    -0.00   0.00   0.00     0.00  -0.00   0.00
   6   6     0.00  -0.08   0.00     0.00  -0.00   0.00     0.00   0.00   0.00
   7   8     0.00   0.01   0.00    -0.00   0.00  -0.00     0.00  -0.00  -0.00
   8   1     0.01   0.00  -0.00     0.00  -0.00   0.00    -0.00   0.00   0.00
   9   1     0.01  -0.01   0.00     0.00  -0.00  -0.00    -0.00   0.00  -0.00
  10   1    -0.01  -0.01   0.00     0.00  -0.00  -0.00    -0.00   0.00  -0.00
  11   1     0.01   0.01   0.00     0.00  -0.00   0.00    -0.01   0.01   0.00
  12   1     0.03  -0.01   0.00    -0.00  -0.00   0.00     0.00   0.00   0.00
  13   6     0.49   0.60  -0.00    -0.00  -0.00  -0.01     0.01   0.01  -0.00
  14   8    -0.38  -0.45   0.00     0.00   0.00   0.00    -0.00  -0.00   0.00
  15   6    -0.00  -0.06   0.00    -0.00  -0.00  -0.29     0.12   0.17  -0.00
  16   1     0.00   0.09  -0.00    -0.00  -0.00  -0.04     0.05   0.02  -0.00
  17   1    -0.02  -0.05  -0.03    -0.24  -0.33   0.53    -0.23  -0.31   0.58
  18   1    -0.02  -0.05   0.03     0.25   0.33   0.54    -0.23  -0.30  -0.57
                     43                     44                     45
                        a                      a                      a 
 Frequencies --  3054.5824              3091.2141              3099.9555
 Red. masses --     1.7476                 1.7720                 1.8510
 Frc consts  --     0.0000                 0.0000                 0.0000
 IR Inten    --    27.2738                 9.3261                61.1096
 Raman Activ --     0.0000                 0.0000                 0.0000
 Depolar     --     0.0000                 0.0000                 0.0000
 Atom AN      X      Y      Z        X      Y      Z        X      Y      Z
   1   6    -0.00  -0.00  -0.00    -0.13  -0.14  -0.00     0.13   0.14   0.00
   2   6     0.00  -0.00  -0.00    -0.05   0.17   0.00    -0.05   0.16   0.00
   3   6     0.00   0.00   0.00     0.04  -0.01  -0.00     0.10  -0.02  -0.00
   4   6    -0.00  -0.00   0.00     0.00  -0.00  -0.00     0.00   0.00   0.00
   5   6     0.00  -0.00  -0.00     0.00  -0.01  -0.00    -0.01   0.01   0.00
   6   6    -0.00   0.00   0.00    -0.01  -0.00  -0.00     0.00  -0.00  -0.00
   7   8     0.00   0.00   0.00     0.00   0.00   0.00    -0.00   0.00   0.00
   8   1    -0.00   0.00   0.00     0.00  -0.00  -0.00     0.00  -0.00  -0.00
   9   1    -0.00   0.00   0.00     0.20  -0.63  -0.00     0.18  -0.56  -0.00
  10   1    -0.00   0.00   0.00    -0.16   0.03   0.00    -0.37   0.07   0.00
  11   1    -0.00   0.00   0.00    -0.01   0.03   0.00     0.02  -0.05  -0.00
  12   1     0.00   0.00   0.00     0.47   0.50   0.00    -0.45  -0.48  -0.00
  13   6     0.01  -0.00  -0.00    -0.00  -0.00   0.00     0.00   0.00  -0.00
  14   8    -0.00  -0.00   0.00     0.00   0.00  -0.00    -0.00  -0.00   0.00
  15   6     0.26   0.00  -0.00    -0.00  -0.00  -0.00     0.00   0.00   0.00
  16   1    -0.96   0.01  -0.00     0.00   0.00   0.00    -0.00   0.00  -0.00
  17   1     0.02  -0.01   0.02     0.00   0.00  -0.00    -0.00  -0.00   0.00
  18   1     0.02  -0.01  -0.02     0.00   0.00   0.00    -0.00  -0.00  -0.00
                     46                     47                     48
                        a                      a                      a 
 Frequencies --  3103.9877              3112.0173              3445.5186
 Red. masses --     1.8252                 1.8800                 1.8615
 Frc consts  --     0.0000                 0.0000                 0.0000
 IR Inten    --    27.5431                44.7557               160.7096
 Raman Activ --     0.0000                 0.0000                 0.0000
 Depolar     --     0.0000                 0.0000                 0.0000
 Atom AN      X      Y      Z        X      Y      Z        X      Y      Z
   1   6     0.00   0.01   0.00     0.04   0.03   0.00    -0.00   0.00   0.00
   2   6     0.00  -0.01  -0.00    -0.03   0.11   0.00     0.00  -0.00  -0.00
   3   6     0.03  -0.00  -0.00    -0.24   0.05   0.00     0.00   0.00   0.00
   4   6    -0.01  -0.01  -0.00    -0.01  -0.01  -0.00    -0.00  -0.01  -0.00
   5   6     0.08  -0.26  -0.00     0.01  -0.03  -0.00     0.00   0.00   0.00
   6   6     0.01  -0.00  -0.00     0.00  -0.00  -0.00    -0.00  -0.00  -0.00
   7   8     0.00   0.00   0.00     0.00  -0.00  -0.00     0.10  -0.22  -0.00
   8   1     0.00   0.00   0.00    -0.00   0.01   0.00    -0.39   0.89   0.00
   9   1    -0.01   0.03   0.00     0.11  -0.35  -0.00    -0.00  -0.00   0.00
  10   1    -0.11   0.02   0.00     0.85  -0.17  -0.00    -0.01   0.00   0.00
  11   1    -0.29   0.91   0.00    -0.03   0.10   0.00    -0.00  -0.00  -0.00
  12   1    -0.02  -0.03  -0.00    -0.11  -0.12  -0.00    -0.00  -0.00   0.00
  13   6     0.00  -0.00   0.00     0.00   0.00  -0.00    -0.00  -0.00   0.00
  14   8    -0.00  -0.00   0.00    -0.00  -0.00   0.00     0.00   0.00  -0.00
  15   6    -0.00  -0.00   0.00     0.00   0.00   0.00    -0.00  -0.00  -0.00
  16   1     0.00   0.00   0.00    -0.00   0.00  -0.00     0.00   0.00   0.00
  17   1     0.00   0.01  -0.01     0.00  -0.00   0.00     0.00   0.00  -0.00
  18   1     0.00   0.01   0.01     0.00  -0.00  -0.00     0.00   0.00   0.00
