      -----------------------------------------------------------      
     |                   =====================                   |     
     |                           x T B                           |     
     |                   =====================                   |     
     |                         S. Grimme                         |     
     |          Mulliken Center for Theoretical Chemistry        |     
     |                    University of Bonn                     |     
      -----------------------------------------------------------      

   * xtb version 6.4.1 (afa7bdf) compiled by 'ehlert@majestix' on 2021-06-10

   xtb is free software: you can redistribute it and/or modify it under
   the terms of the GNU Lesser General Public License as published by
   the Free Software Foundation, either version 3 of the License, or
   (at your option) any later version.
   
   xtb is distributed in the hope that it will be useful,
   but WITHOUT ANY WARRANTY; without even the implied warranty of
   MERCHANTABILITY or FITNESS FOR A PARTICULAR PURPOSE.  See the
   GNU Lesser General Public License for more details.
   
   Cite this work as:
   * C. Bannwarth, E. Caldeweyher, S. Ehlert, A. Hansen, P. Pracht,
     J. Seibert, S. Spicher, S. Grimme, WIREs Comput. Mol. Sci., 2020, 11,
     e01493. DOI: 10.1002/wcms.1493
   
   for GFN2-xTB:
   * C. Bannwarth, S. Ehlert and S. Grimme., J. Chem. Theory Comput., 2019,
     15, 1652-1671. DOI: 10.1021/acs.jctc.8b01176
   for GFN1-xTB:
   * S. Grimme, C. Bannwarth, P. Shushkov, J. Chem. Theory Comput., 2017,
     13, 1989-2009. DOI: 10.1021/acs.jctc.7b00118
   for GFN0-xTB:
   * P. Pracht, E. Caldeweyher, S. Ehlert, S. Grimme, ChemRxiv, 2019, preprint.
     DOI: 10.26434/chemrxiv.8326202.v1
   for GFN-FF:
   * S. Spicher and S. Grimme, Angew. Chem. Int. Ed., 2020, 59, 15665-15673.
     DOI: 10.1002/anie.202004239
   
   for DFT-D4:
   * E. Caldeweyher, C. Bannwarth and S. Grimme, J. Chem. Phys., 2017,
     147, 034112. DOI: 10.1063/1.4993215
   * E. Caldeweyher, S. Ehlert, A. Hansen, H. Neugebauer, S. Spicher,
     C. Bannwarth and S. Grimme, J. Chem. Phys., 2019, 150, 154122.
     DOI: 10.1063/1.5090222
   * E. Caldeweyher, J.-M. Mewes, S. Ehlert and S. Grimme, Phys. Chem. Chem. Phys.
     2020, 22, 8499-8512. DOI: 10.1039/D0CP00502A
   
   for sTDA-xTB:
   * S. Grimme and C. Bannwarth, J. Chem. Phys., 2016, 145, 054103.
     DOI: 10.1063/1.4959605
   
   in the mass-spec context:
   * V. Asgeirsson, C. Bauer and S. Grimme, Chem. Sci., 2017, 8, 4879.
     DOI: 10.1039/c7sc00601b
   * J. Koopman and S. Grimme, ACS Omega 2019, 4, 12, 15120-15133.
     DOI: 10.1021/acsomega.9b02011
   
   for metadynamics refer to:
   * S. Grimme, J. Chem. Theory Comput., 2019, 155, 2847-2862
     DOI: 10.1021/acs.jctc.9b00143
   
   for SPH calculations refer to:
   * S. Spicher and S. Grimme, J. Chem. Theory Comput., 2021, 17, 1701-1714
     DOI: 10.1021/acs.jctc.0c01306
   
   with help from (in alphabetical order)
   P. Atkinson, C. Bannwarth, F. Bohle, G. Brandenburg, E. Caldeweyher
   M. Checinski, S. Dohm, S. Ehlert, S. Ehrlich, I. Gerasimov, J. Koopman
   C. Lavigne, S. Lehtola, F. März, M. Müller, F. Musil, H. Neugebauer
   J. Pisarek, C. Plett, P. Pracht, J. Seibert, P. Shushkov, S. Spicher
   M. Stahn, M. Steiner, T. Strunk, J. Stückrath, T. Rose, and J. Unsleber
   
 * started run on 2021/11/15 at 09:36:20.009     

           -------------------------------------------------
          |                Calculation Setup                |
           -------------------------------------------------

          program call               : xtb 30_diphenylamine.xyz --gfn2 --chrg 0 --uhf 0 --alpb water --ohess -P 1
          coordinate file            : 30_diphenylamine.xyz
          omp threads                :                     1
          number of atoms            :                    24
          number of electrons        :                    64
          charge                     :                     0
          spin                       :                   0.0
          first test random number   :      0.35628897104625

   ID    Z sym.   atoms
    1    6 C      1-6, 14-17, 19, 21
    2    1 H      7-11, 13, 18, 20, 22-24
    3    7 N      12

           -------------------------------------------------
          |                 G F N 2 - x T B                 |
           -------------------------------------------------

        Reference                      10.1021/acs.jctc.8b01176
      * Hamiltonian:
        H0-scaling (s, p, d)           1.850000    2.230000    2.230000
        zeta-weighting                 0.500000
      * Dispersion:
        s8                             2.700000
        a1                             0.520000
        a2                             5.000000
        s9                             5.000000
      * Repulsion:
        kExp                           1.500000    1.000000
        rExp                           1.000000
      * Coulomb:
        alpha                          2.000000
        third order                    shell-resolved
        anisotropic                    true
        a3                             3.000000
        a5                             4.000000
        cn-shift                       1.200000
        cn-exp                         4.000000
        max-rad                        5.000000

      * Solvation model:               ALPB
        Solvent                        water
        Parameter file                 internal GFN2-xTB/ALPB
        Dielectric constant                8.0200E+01
        Reference state                gsolv [1 M gas/solution]
        Free energy shift                  1.0808E-03 Eh       6.7819E-01 kcal/mol
        Temperature                        2.9815E+02 K
        Density                            1.0000E+00 kg/L
        Solvent mass                       1.8000E+01 g/mol
        Interaction kernel             P16
        Born radius scaling (c1)           1.4744E+00
        Born radii integrator          GBOBC
        Born offset                        0.0000E+00 a0       0.0000E+00 AA
        H-bond correction              true
        Ion screening                  false
        Surface tension                    1.0000E-05 Eh       1.5569E+01 dyn/cm
        Grid points                               230 per atom

          ...................................................
          :                      SETUP                      :
          :.................................................:
          :  # basis functions                  63          :
          :  # atomic orbitals                  63          :
          :  # shells                           37          :
          :  # electrons                        64          :
          :  max. iterations                   250          :
          :  Hamiltonian                  GFN2-xTB          :
          :  restarted?                      false          :
          :  GBSA solvation                   true          :
          :  PC potential                    false          :
          :  electronic temp.          300.0000000     K    :
          :  accuracy                    1.0000000          :
          :  -> integral cutoff          0.2500000E+02      :
          :  -> integral neglect         0.1000000E-07      :
          :  -> SCF convergence          0.1000000E-05 Eh   :
          :  -> wf. convergence          0.1000000E-03 e    :
          :  Broyden damping             0.4000000          :
          ...................................................

 iter      E             dE          RMSdq      gap      omega  full diag
   1    -34.8035759 -0.348036E+02  0.424E+00    3.09       0.0  T
   2    -34.8199891 -0.164132E-01  0.261E+00    3.36       1.0  T
   3    -34.8128565  0.713263E-02  0.102E+00    3.39       1.0  T
   4    -34.8233595 -0.105030E-01  0.206E-01    3.35       1.0  T
   5    -34.8237673 -0.407764E-03  0.647E-02    3.37       1.0  T
   6    -34.8237776 -0.103154E-04  0.261E-02    3.37       1.0  T
   7    -34.8237828 -0.525914E-05  0.126E-02    3.37       1.6  T
   8    -34.8237832 -0.370703E-06  0.154E-03    3.37      13.3  T
   9    -34.8237832 -0.163449E-07  0.867E-04    3.37      23.5  T
  10    -34.8237832 -0.285969E-08  0.479E-04    3.37      42.6  T

   *** convergence criteria satisfied after 10 iterations ***

         #    Occupation            Energy/Eh            Energy/eV
      -------------------------------------------------------------
         1        2.0000           -0.6504387             -17.6993
       ...           ...                  ...                  ...
        26        2.0000           -0.4267545             -11.6126
        27        2.0000           -0.4190122             -11.4019
        28        2.0000           -0.4144114             -11.2767
        29        2.0000           -0.3988542             -10.8534
        30        2.0000           -0.3978170             -10.8252
        31        2.0000           -0.3971217             -10.8062
        32        2.0000           -0.3490217              -9.4974 (HOMO)
        33                         -0.2251843              -6.1276 (LUMO)
        34                         -0.2193570              -5.9690
        35                         -0.2189894              -5.9590
        36                         -0.1935973              -5.2680
        37                         -0.0955860              -2.6010
       ...                                ...                  ...
        63                          0.6640405              18.0695
      -------------------------------------------------------------
                  HL-Gap            0.1238373 Eh            3.3698 eV
             Fermi-level           -0.2871030 Eh           -7.8125 eV

 SCC (total)                   0 d,  0 h,  0 min,  0.017 sec
 SCC setup                      ...        0 min,  0.001 sec (  3.516%)
 Dispersion                     ...        0 min,  0.000 sec (  1.559%)
 classical contributions        ...        0 min,  0.000 sec (  0.209%)
 integral evaluation            ...        0 min,  0.003 sec ( 15.624%)
 iterations                     ...        0 min,  0.008 sec ( 46.002%)
 molecular gradient             ...        0 min,  0.005 sec ( 31.808%)
 printout                       ...        0 min,  0.000 sec (  1.146%)

         :::::::::::::::::::::::::::::::::::::::::::::::::::::
         ::                     SUMMARY                     ::
         :::::::::::::::::::::::::::::::::::::::::::::::::::::
         :: total energy             -34.209643017079 Eh    ::
         :: total w/o Gsasa/hb       -34.206703049675 Eh    ::
         :: gradient norm              0.023954769857 Eh/a0 ::
         :: HOMO-LUMO gap              3.369785300424 eV    ::
         ::.................................................::
         :: SCC energy               -34.823783230496 Eh    ::
         :: -> isotropic ES            0.008542048687 Eh    ::
         :: -> anisotropic ES          0.006511142315 Eh    ::
         :: -> anisotropic XC          0.022662360216 Eh    ::
         :: -> dispersion             -0.022492005944 Eh    ::
         :: -> Gsolv                  -0.004365504049 Eh    ::
         ::    -> Gelec               -0.001425536644 Eh    ::
         ::    -> Gsasa               -0.002820431317 Eh    ::
         ::    -> Ghb                 -0.001200295786 Eh    ::
         ::    -> Gshift               0.001080759698 Eh    ::
         :: repulsion energy           0.614208570351 Eh    ::
         :: add. restraining           0.000000000000 Eh    ::
         :: total charge              -0.000000000000 e     ::
         :::::::::::::::::::::::::::::::::::::::::::::::::::::

      ----------------------------------------------------------- 
     |                   =====================                   |
     |                        A N C O P T                        |
     |                   =====================                   |
     |               Approximate Normal Coordinate               |
     |                Rational Function Optimizer                |
      ----------------------------------------------------------- 

          ...................................................
          :                      SETUP                      :
          :.................................................:
          :   optimization level            normal          :
          :   max. optcycles                   200          :
          :   ANC micro-cycles                  20          :
          :   degrees of freedom                66          :
          :.................................................:
          :   RF solver                   davidson          :
          :   write xtbopt.log                true          :
          :   linear?                        false          :
          :   energy convergence         0.5000000E-05 Eh   :
          :   grad. convergence          0.1000000E-02 Eh/α :
          :   maximium RF displ.         1.0000000          :
          :   Hlow (freq-cutoff)         0.1000000E-01      :
          :   Hmax (freq-cutoff)         5.0000000          :
          :   S6 in model hess.         20.0000000          :
          ...................................................

generating ANC from model Hessian ...
Using Lindh-Hessian (1995)
 Shifting diagonal of input Hessian by   8.585688761594171E-003
 Lowest  eigenvalues of input Hessian
    0.000000    0.000000    0.000000    0.000000    0.000000    0.000000
    0.010000    0.010082    0.010801    0.016191    0.019752    0.023058
    0.023494    0.029697    0.030122    0.032109    0.032728    0.034394
 Highest eigenvalues
    1.848675    1.873052    1.943064    1.964719    2.030321    2.151581
 

........................................................................
.............................. CYCLE    1 ..............................
........................................................................
   1    -34.8237832 -0.348238E+02  0.157E-04    3.37       0.0  T
   2    -34.8237832 -0.539231E-10  0.108E-04    3.37     188.8  T
   3    -34.8237832 -0.229718E-10  0.558E-05    3.37     365.7  T
     SCC iter.                  ...        0 min,  0.003 sec
     gradient                   ...        0 min,  0.005 sec
 * total energy  :   -34.2096430 Eh     change       -0.1889155E-08 Eh
   gradient norm :     0.0239564 Eh/α   predicted     0.0000000E+00 (-100.00%)
   displ. norm   :     0.1447869 α      lambda       -0.2336162E-02
   maximum displ.:     0.0719894 α      in ANC's #10, #35, #12, ...

........................................................................
.............................. CYCLE    2 ..............................
........................................................................
   1    -34.8516959 -0.348517E+02  0.113E-01    3.41       0.0  T
   2    -34.8517032 -0.725451E-05  0.674E-02    3.42       1.0  T
   3    -34.8516964  0.675898E-05  0.262E-02    3.42       1.0  T
   4    -34.8517056 -0.920923E-05  0.312E-03    3.42       6.5  T
   5    -34.8517056 -0.392511E-07  0.150E-03    3.42      13.6  T
   6    -34.8517057 -0.997589E-08  0.638E-04    3.42      32.0  T
   7    -34.8517057 -0.257123E-08  0.214E-04    3.42      95.4  T
     SCC iter.                  ...        0 min,  0.005 sec
     gradient                   ...        0 min,  0.005 sec
 * total energy  :   -34.2110571 Eh     change       -0.1414051E-02 Eh
   gradient norm :     0.0056290 Eh/α   predicted    -0.1192572E-02 ( -15.66%)
   displ. norm   :     0.0792443 α      lambda       -0.1841855E-03
   maximum displ.:     0.0425081 α      in ANC's #3, #10, #1, ...

........................................................................
.............................. CYCLE    3 ..............................
........................................................................
   1    -34.8586734 -0.348587E+02  0.414E-02    3.42       0.0  T
   2    -34.8586768 -0.337768E-05  0.255E-02    3.42       1.0  T
   3    -34.8586763  0.474966E-06  0.119E-02    3.42       1.7  T
   4    -34.8586776 -0.124074E-05  0.182E-03    3.42      11.2  T
   5    -34.8586776 -0.291651E-07  0.614E-04    3.42      33.2  T
   6    -34.8586776 -0.194898E-08  0.297E-04    3.42      68.7  T
     SCC iter.                  ...        0 min,  0.005 sec
     gradient                   ...        0 min,  0.006 sec
 * total energy  :   -34.2111657 Eh     change       -0.1086736E-03 Eh
   gradient norm :     0.0017731 Eh/α   predicted    -0.9347126E-04 ( -13.99%)
   displ. norm   :     0.0910043 α      lambda       -0.3320450E-04
   maximum displ.:     0.0631162 α      in ANC's #3, #1, #10, ...

........................................................................
.............................. CYCLE    4 ..............................
........................................................................
   1    -34.8596065 -0.348596E+02  0.336E-02    3.42       0.0  T
   2    -34.8596075 -0.993759E-06  0.202E-02    3.42       1.0  T
   3    -34.8596070  0.517491E-06  0.653E-03    3.42       3.1  T
   4    -34.8596077 -0.706297E-06  0.989E-04    3.42      20.6  T
   5    -34.8596077 -0.122915E-07  0.311E-04    3.42      65.6  T
     SCC iter.                  ...        0 min,  0.004 sec
     gradient                   ...        0 min,  0.006 sec
 * total energy  :   -34.2112025 Eh     change       -0.3677225E-04 Eh
   gradient norm :     0.0014828 Eh/α   predicted    -0.1677081E-04 ( -54.39%)
   displ. norm   :     0.0977617 α      lambda       -0.2808914E-04
   maximum displ.:     0.0694492 α      in ANC's #1, #3, #4, ...

........................................................................
.............................. CYCLE    5 ..............................
........................................................................
   1    -34.8582525 -0.348583E+02  0.325E-02    3.42       0.0  T
   2    -34.8582526 -0.794812E-07  0.191E-02    3.42       1.1  T
   3    -34.8582525  0.125288E-06  0.308E-03    3.41       6.6  T
   4    -34.8582527 -0.163527E-06  0.383E-04    3.42      53.3  T
   5    -34.8582527 -0.185395E-09  0.216E-04    3.42      94.4  T
     SCC iter.                  ...        0 min,  0.005 sec
     gradient                   ...        0 min,  0.007 sec
 * total energy  :   -34.2112381 Eh     change       -0.3563254E-04 Eh
   gradient norm :     0.0017341 Eh/α   predicted    -0.1410438E-04 ( -60.42%)
   displ. norm   :     0.1285013 α      lambda       -0.3037685E-04
   maximum displ.:     0.0926625 α      in ANC's #1, #3, #8, ...

........................................................................
.............................. CYCLE    6 ..............................
........................................................................
   1    -34.8576402 -0.348576E+02  0.399E-02    3.42       0.0  T
   2    -34.8576407 -0.528703E-06  0.235E-02    3.41       1.0  T
   3    -34.8576403  0.433484E-06  0.605E-03    3.41       3.4  T
   4    -34.8576408 -0.545056E-06  0.778E-04    3.41      26.2  T
   5    -34.8576408 -0.639456E-08  0.306E-04    3.41      66.7  T
     SCC iter.                  ...        0 min,  0.004 sec
     gradient                   ...        0 min,  0.005 sec
 * total energy  :   -34.2112773 Eh     change       -0.3914646E-04 Eh
   gradient norm :     0.0012941 Eh/α   predicted    -0.1530030E-04 ( -60.92%)
   displ. norm   :     0.1682982 α      lambda       -0.3179781E-04
   maximum displ.:     0.1224545 α      in ANC's #1, #3, #4, ...

........................................................................
.............................. CYCLE    7 ..............................
........................................................................
   1    -34.8574483 -0.348574E+02  0.504E-02    3.42       0.0  T
   2    -34.8574489 -0.638462E-06  0.296E-02    3.41       1.0  T
   3    -34.8574484  0.489801E-06  0.637E-03    3.41       3.2  T
   4    -34.8574490 -0.616281E-06  0.957E-04    3.41      21.3  T
   5    -34.8574491 -0.928910E-08  0.391E-04    3.41      52.2  T
     SCC iter.                  ...        0 min,  0.004 sec
     gradient                   ...        0 min,  0.006 sec
 * total energy  :   -34.2113157 Eh     change       -0.3842018E-04 Eh
   gradient norm :     0.0008481 Eh/α   predicted    -0.1609982E-04 ( -58.10%)
   displ. norm   :     0.1489938 α      lambda       -0.1994040E-04
   maximum displ.:     0.1130416 α      in ANC's #1, #3, #4, ...

........................................................................
.............................. CYCLE    8 ..............................
........................................................................
   1    -34.8577114 -0.348577E+02  0.468E-02    3.42       0.0  T
   2    -34.8577118 -0.319395E-06  0.275E-02    3.42       1.0  T
   3    -34.8577115  0.247395E-06  0.446E-03    3.42       4.6  T
   4    -34.8577118 -0.317992E-06  0.729E-04    3.42      28.0  T
   5    -34.8577118 -0.475717E-08  0.327E-04    3.42      62.5  T
     SCC iter.                  ...        0 min,  0.004 sec
     gradient                   ...        0 min,  0.005 sec
 * total energy  :   -34.2113385 Eh     change       -0.2277845E-04 Eh
   gradient norm :     0.0006351 Eh/α   predicted    -0.1007138E-04 ( -55.79%)
   displ. norm   :     0.0809327 α      lambda       -0.8359521E-05
   maximum displ.:     0.0677287 α      in ANC's #1, #3, #4, ...

........................................................................
.............................. CYCLE    9 ..............................
........................................................................
   1    -34.8581947 -0.348582E+02  0.290E-02    3.42       0.0  T
   2    -34.8581948 -0.702012E-07  0.170E-02    3.42       1.2  T
   3    -34.8581947  0.355569E-07  0.179E-03    3.42      11.4  T
   4    -34.8581948 -0.544525E-07  0.407E-04    3.42      50.1  T
   5    -34.8581948 -0.104399E-08  0.208E-04    3.42      98.0  T
     SCC iter.                  ...        0 min,  0.004 sec
     gradient                   ...        0 min,  0.005 sec
 * total energy  :   -34.2113480 Eh     change       -0.9528212E-05 Eh
   gradient norm :     0.0004002 Eh/α   predicted    -0.4193281E-05 ( -55.99%)
   displ. norm   :     0.0354354 α      lambda       -0.3855495E-05
   maximum displ.:     0.0338258 α      in ANC's #1, #3, #4, ...

........................................................................
.............................. CYCLE   10 ..............................
........................................................................
   1    -34.8584951 -0.348585E+02  0.160E-02    3.42       0.0  T
   2    -34.8584951 -0.116953E-07  0.937E-03    3.42       2.2  T
   3    -34.8584951  0.450940E-08  0.659E-04    3.42      31.0  T
   4    -34.8584951 -0.798826E-08  0.152E-04    3.42     134.4  T
     SCC iter.                  ...        0 min,  0.005 sec
     gradient                   ...        0 min,  0.009 sec
 * total energy  :   -34.2113530 Eh     change       -0.5002397E-05 Eh
   gradient norm :     0.0002160 Eh/α   predicted    -0.1930714E-05 ( -61.40%)
   displ. norm   :     0.0258199 α      lambda       -0.2849587E-05
   maximum displ.:     0.0241709 α      in ANC's #1, #3, #4, ...

........................................................................
.............................. CYCLE   11 ..............................
........................................................................
   1    -34.8585474 -0.348585E+02  0.132E-02    3.42       0.0  T
   2    -34.8585474 -0.594049E-08  0.771E-03    3.42       2.6  T
   3    -34.8585474 -0.322800E-09  0.358E-04    3.42      57.0  T
   4    -34.8585474 -0.168595E-08  0.119E-04    3.42     171.2  T
     SCC iter.                  ...        0 min,  0.004 sec
     gradient                   ...        0 min,  0.005 sec
 * total energy  :   -34.2113569 Eh     change       -0.3918189E-05 Eh
   gradient norm :     0.0002174 Eh/α   predicted    -0.1425698E-05 ( -63.61%)
   displ. norm   :     0.0277573 α      lambda       -0.2683535E-05
   maximum displ.:     0.0238401 α      in ANC's #1, #3, #4, ...

   *** GEOMETRY OPTIMIZATION CONVERGED AFTER 11 ITERATIONS ***

------------------------------------------------------------------------
 total energy gain   :        -0.0017139 Eh       -1.0755 kcal/mol
 total RMSD          :         0.1785505 a0        0.0945 Å
 total power (kW/mol):        -0.4090827 (step)  -29.2807 (real)
------------------------------------------------------------------------

 ANCopt (total)                0 d,  0 h,  0 min,  0.154 sec
 optimizer setup                ...        0 min,  0.000 sec (  0.116%)
 model hessian                  ...        0 min,  0.003 sec (  1.781%)
 ANC generation                 ...        0 min,  0.000 sec (  0.322%)
 coordinate transformation      ...        0 min,  0.000 sec (  0.066%)
 single point calculation       ...        0 min,  0.147 sec ( 95.430%)
 optimization log               ...        0 min,  0.002 sec (  1.427%)
 hessian update                 ...        0 min,  0.000 sec (  0.063%)
 rational function              ...        0 min,  0.001 sec (  0.407%)

================
 final structure:
================
24
 xtb: 6.4.1 (afa7bdf)
C        -3.61908876131248   -0.65814766378883    0.38537098494840
C        -2.35017381722922   -1.20045198014576    0.40687449619441
C        -1.24778435679492   -0.45459967031742   -0.02065694275336
C        -1.46475011391642    0.83498183463274   -0.50961300790507
C        -2.73822213340929    1.37098654517273   -0.52105665437945
C        -3.82055752261838    0.63633965329921   -0.06611396727772
H        -4.45735078585156   -1.24850840517252    0.72469103039700
H        -2.20103183239148   -2.21132297485833    0.75805593415033
H        -0.63988829063078    1.40507728527437   -0.90696212812140
H        -2.88675432281163    2.37153453931301   -0.89989442032230
H        -4.81172006594050    1.06289800936684   -0.07523841345469
N        -0.00002085822301   -1.04891538134363    0.00009127459825
H        -0.00004202654927   -2.05836875732530    0.00006119702523
C         1.24777328818411   -0.45465040779779    0.02071137373046
C         1.46484176980683    0.83488648957700    0.50973989359455
C         2.35008055584206   -1.20050924488718   -0.40701396711651
C         2.73833080446414    1.37085242157116    0.52105393077878
H         0.64004545179623    1.40497095025063    0.90724093133760
C         3.61901601954536   -0.65824479910181   -0.38563765234323
H         2.20086078026316   -2.21134968795029   -0.75825008183807
C         3.82058211051574    0.63620451686723    0.06591039817477
H         2.88694711524741    2.37136704987786    0.89994610043461
H         4.45721501730775   -1.24860541688852   -0.72511295983275
H         4.81175797470611    1.06273409437466    0.07493064998016
 
 Bond Distances (Angstroems)
 ---------------------------
C1-C2=1.3801         C1-C6=1.3857         C1-H7=1.0800         C2-C1=1.3801         C2-C3=1.3980         C2-H8=1.0805         
C3-C2=1.3980         C3-C4=1.3961         C3-N12=1.3822        C4-C3=1.3961         C4-C5=1.3817         C4-H9=1.0786         
C5-C4=1.3817         C5-C6=1.3850         C5-H10=1.0801        C6-C1=1.3857         C6-C5=1.3850         C6-H11=1.0791        
H7-C1=1.0800         H8-C2=1.0805         H9-C4=1.0786         H10-C5=1.0801        H11-C6=1.0791        N12-C3=1.3822        
N12-H13=1.0095       N12-C14=1.3822       H13-N12=1.0095       C14-N12=1.3822       C14-C15=1.3961       C14-C16=1.3980       
C15-C14=1.3961       C15-C17=1.3817       C15-H18=1.0786       C16-C14=1.3980       C16-C19=1.3801       C16-H20=1.0805       
C17-C15=1.3817       C17-C21=1.3850       C17-H22=1.0801       H18-C15=1.0786       C19-C16=1.3801       C19-C21=1.3857       
C19-H23=1.0800       H20-C16=1.0805       C21-C17=1.3850       C21-C19=1.3857       C21-H24=1.0791       H22-C17=1.0801       
H23-C19=1.0800       H24-C21=1.0791       
 C  H  Rav=1.0796 sigma=0.0007  Rmin=1.0786  Rmax=1.0805    10
 C  C  Rav=1.3878 sigma=0.0068  Rmin=1.3801  Rmax=1.3980    12
 N  H  Rav=1.0095 sigma=0.0000  Rmin=1.0095  Rmax=1.0095     1
 N  C  Rav=1.3822 sigma=0.0000  Rmin=1.3822  Rmax=1.3822     2
 
 selected bond angles (degree)
 --------------------
C6-C1-C2=120.39                H7-C1-C2=119.60                H7-C1-C6=120.01                C3-C2-C1=120.70                
H8-C2-C1=119.97                H8-C2-C3=119.32                C4-C3-C2=118.51                N12-C3-C2=118.55               
N12-C3-C4=122.87               C5-C4-C3=120.29                H9-C4-C3=119.89                H9-C4-C5=119.79                
C6-C5-C4=120.78                H10-C5-C4=119.27               H10-C5-C6=119.94               C5-C6-C1=119.27                
H11-C6-C1=120.37               H11-C6-C5=120.35               
 
 selected dihedral angles (degree)
 ---------------------------------
C3-C2-C1-C6=  0.22            C3-C2-C1-H7=180.32            H8-C2-C1-C6=180.14            H8-C2-C1-H7=  0.25            
C4-C3-C2-C1=357.98            C4-C3-C2-H8=178.06            N12-C3-C2-C1=181.00           N12-C3-C2-H8=  1.08           
C5-C4-C3-C2=  2.32            C5-C4-C3-N12=179.16           H9-C4-C3-C2=184.11            H9-C4-C3-N12=  0.95           
C6-C5-C4-C3=359.16            C6-C5-C4-H9=177.37            H10-C5-C4-C3=179.79           H10-C5-C4-H9=358.00           
C5-C6-C1-C2=  1.29            C5-C6-C1-H7=181.19            H11-C6-C1-C2=180.50           H11-C6-C1-H7=  0.40           
C1-C6-C5-C4=359.01            C1-C6-C5-H10=178.38           H11-C6-C5-C4=179.80           H11-C6-C5-H10=359.17          
           -------------------------------------------------
          |                Final Singlepoint                |
           -------------------------------------------------

          ...................................................
          :                      SETUP                      :
          :.................................................:
          :  # basis functions                  63          :
          :  # atomic orbitals                  63          :
          :  # shells                           37          :
          :  # electrons                        64          :
          :  max. iterations                   250          :
          :  Hamiltonian                  GFN2-xTB          :
          :  restarted?                      false          :
          :  GBSA solvation                   true          :
          :  PC potential                    false          :
          :  electronic temp.          300.0000000     K    :
          :  accuracy                    1.0000000          :
          :  -> integral cutoff          0.2500000E+02      :
          :  -> integral neglect         0.1000000E-07      :
          :  -> SCF convergence          0.1000000E-05 Eh   :
          :  -> wf. convergence          0.1000000E-03 e    :
          :  Broyden damping             0.4000000          :
          ...................................................

 iter      E             dE          RMSdq      gap      omega  full diag
   1    -34.8585474 -0.348585E+02  0.591E-05    3.42       0.0  T
   2    -34.8585474 -0.186162E-11  0.363E-05    3.42     562.6  T
   3    -34.8585474  0.122924E-11  0.163E-05    3.42    1249.5  T

   *** convergence criteria satisfied after 3 iterations ***

         #    Occupation            Energy/Eh            Energy/eV
      -------------------------------------------------------------
         1        2.0000           -0.6537558             -17.7896
       ...           ...                  ...                  ...
        26        2.0000           -0.4260503             -11.5934
        27        2.0000           -0.4183917             -11.3850
        28        2.0000           -0.4149722             -11.2920
        29        2.0000           -0.3997184             -10.8769
        30        2.0000           -0.3991833             -10.8623
        31        2.0000           -0.3981158             -10.8333
        32        2.0000           -0.3487170              -9.4891 (HOMO)
        33                         -0.2230842              -6.0704 (LUMO)
        34                         -0.2172687              -5.9122
        35                         -0.2163031              -5.8859
        36                         -0.1910650              -5.1991
        37                         -0.0903100              -2.4575
       ...                                ...                  ...
        63                          0.6887036              18.7406
      -------------------------------------------------------------
                  HL-Gap            0.1256328 Eh            3.4186 eV
             Fermi-level           -0.2859006 Eh           -7.7798 eV

 SCC (total)                   0 d,  0 h,  0 min,  0.012 sec
 SCC setup                      ...        0 min,  0.000 sec (  4.000%)
 Dispersion                     ...        0 min,  0.000 sec (  0.579%)
 classical contributions        ...        0 min,  0.000 sec (  0.189%)
 integral evaluation            ...        0 min,  0.002 sec ( 20.958%)
 iterations                     ...        0 min,  0.003 sec ( 25.286%)
 molecular gradient             ...        0 min,  0.005 sec ( 47.006%)
 printout                       ...        0 min,  0.000 sec (  1.804%)

         :::::::::::::::::::::::::::::::::::::::::::::::::::::
         ::                     SUMMARY                     ::
         :::::::::::::::::::::::::::::::::::::::::::::::::::::
         :: total energy             -34.211356942394 Eh    ::
         :: total w/o Gsasa/hb       -34.208436612064 Eh    ::
         :: gradient norm              0.000217372832 Eh/a0 ::
         :: HOMO-LUMO gap              3.418642518839 eV    ::
         ::.................................................::
         :: SCC energy               -34.858547379946 Eh    ::
         :: -> isotropic ES            0.008602004134 Eh    ::
         :: -> anisotropic ES          0.006105463492 Eh    ::
         :: -> anisotropic XC          0.021798984631 Eh    ::
         :: -> dispersion             -0.022752395578 Eh    ::
         :: -> Gsolv                  -0.004361775085 Eh    ::
         ::    -> Gelec               -0.001441444755 Eh    ::
         ::    -> Gsasa               -0.002765327307 Eh    ::
         ::    -> Ghb                 -0.001235762722 Eh    ::
         ::    -> Gshift               0.001080759698 Eh    ::
         :: repulsion energy           0.647244474067 Eh    ::
         :: add. restraining           0.000000000000 Eh    ::
         :: total charge               0.000000000000 e     ::
         :::::::::::::::::::::::::::::::::::::::::::::::::::::

           ------------------------------------------------- 
          |                Numerical Hessian                |
           ------------------------------------------------- 
step length          :   0.00500
SCC accuracy         :   0.30000
Hessian scale factor :   1.00000
frozen atoms in %    :   0.00000    0
RMS gradient         :   0.00022
estimated CPU  time      0.03 min
estimated wall time      0.03 min

writing file <hessian>.

 projected vibrational frequencies (cm⁻¹)
eigval :       -0.00    -0.00    -0.00     0.00     0.00     0.00
eigval :       41.41    55.58   102.49   208.23   220.91   305.18
eigval :      320.76   371.10   390.71   425.48   467.67   475.59
eigval :      539.73   577.16   588.70   615.43   651.85   663.37
eigval :      748.21   757.88   807.54   860.65   867.10   875.14
eigval :      886.83   894.76   919.84   921.18   923.11   940.21
eigval :      981.12   993.10  1081.62  1085.93  1117.70  1129.97
eigval :     1179.44  1180.18  1192.07  1200.32  1224.49  1243.01
eigval :     1291.78  1293.96  1330.59  1338.13  1381.66  1443.35
eigval :     1451.94  1478.23  1493.20  1578.26  1579.79  1595.41
eigval :     1604.30  3066.32  3066.38  3071.12  3071.51  3077.21
eigval :     3077.37  3090.58  3091.59  3100.80  3103.18  3433.29
           -------------------------------------------------
          |                Property Printout                |
           -------------------------------------------------

    * Orbital Energies and Occupations

         #    Occupation            Energy/Eh            Energy/eV
      -------------------------------------------------------------
         1        2.0000           -0.6537558             -17.7896
       ...           ...                  ...                  ...
        20        2.0000           -0.4749543             -12.9242
        21        2.0000           -0.4738114             -12.8931
        22        2.0000           -0.4683729             -12.7451
        23        2.0000           -0.4677140             -12.7271
        24        2.0000           -0.4427476             -12.0478
        25        2.0000           -0.4346044             -11.8262
        26        2.0000           -0.4260503             -11.5934
        27        2.0000           -0.4183917             -11.3850
        28        2.0000           -0.4149722             -11.2920
        29        2.0000           -0.3997184             -10.8769
        30        2.0000           -0.3991833             -10.8623
        31        2.0000           -0.3981158             -10.8333
        32        2.0000           -0.3487171              -9.4891 (HOMO)
        33                         -0.2230843              -6.0704 (LUMO)
        34                         -0.2172687              -5.9122
        35                         -0.2163031              -5.8859
        36                         -0.1910650              -5.1991
        37                         -0.0903101              -2.4575
        38                         -0.0741517              -2.0178
        39                          0.0247317               0.6730
        40                          0.1151246               3.1327
        41                          0.1327936               3.6135
        42                          0.1417913               3.8583
        43                          0.1463244               3.9817
       ...                                ...                  ...
        63                          0.6887035              18.7406
      -------------------------------------------------------------
                  HL-Gap            0.1256328 Eh            3.4186 eV
             Fermi-level           -0.2859007 Eh           -7.7798 eV

     #   Z          covCN         q      C6AA      α(0)
     1   6 C        2.919    -0.036    28.885     8.813
     2   6 C        2.926    -0.064    29.597     8.922
     3   6 C        2.903     0.071    26.422     8.428
     4   6 C        2.921    -0.058    29.440     8.898
     5   6 C        2.920    -0.036    28.904     8.816
     6   6 C        2.918    -0.049    29.227     8.865
     7   1 H        0.926     0.032     2.557     2.501
     8   1 H        0.926     0.033     2.548     2.496
     9   1 H        0.926     0.036     2.499     2.472
    10   1 H        0.926     0.031     2.577     2.510
    11   1 H        0.926     0.027     2.625     2.534
    12   7 N        2.700    -0.164    24.548     7.359
    13   1 H        0.860     0.192     1.148     1.679
    14   6 C        2.903     0.071    26.422     8.428
    15   6 C        2.921    -0.058    29.440     8.898
    16   6 C        2.926    -0.064    29.597     8.922
    17   6 C        2.920    -0.036    28.904     8.816
    18   1 H        0.926     0.036     2.499     2.472
    19   6 C        2.919    -0.036    28.885     8.813
    20   1 H        0.926     0.033     2.548     2.496
    21   6 C        2.918    -0.049    29.227     8.865
    22   1 H        0.926     0.031     2.577     2.510
    23   1 H        0.926     0.032     2.557     2.501
    24   1 H        0.926     0.027     2.625     2.534

 Mol. C6AA /au·bohr⁶  :       7450.497265
 Mol. C8AA /au·bohr⁸  :     183535.669663
 Mol. α(0) /au        :        139.548972


Wiberg/Mayer (AO) data.
largest (>0.10) Wiberg bond orders for each atom

 ---------------------------------------------------------------------------
     #   Z sym  total        # sym  WBO       # sym  WBO       # sym  WBO
 ---------------------------------------------------------------------------
     1   6 C    3.991 --     2 C    1.465     6 C    1.425     7 H    0.971
                             4 C    0.103
     2   6 C    3.982 --     1 C    1.465     3 C    1.347     8 H    0.968
                             5 C    0.104
     3   6 C    3.970 --     4 C    1.353     2 C    1.347    12 N    1.122
     4   6 C    3.984 --     5 C    1.458     3 C    1.353     9 H    0.966
                             1 C    0.103
     5   6 C    3.992 --     4 C    1.458     6 C    1.430    10 H    0.971
                             2 C    0.104
     6   6 C    3.978 --     5 C    1.430     1 C    1.425    11 H    0.972
     7   1 H    0.998 --     1 C    0.971
     8   1 H    0.999 --     2 C    0.968
     9   1 H    0.999 --     4 C    0.966
    10   1 H    0.999 --     5 C    0.971
    11   1 H    0.999 --     6 C    0.972
    12   7 N    3.444 --     3 C    1.122    14 C    1.122    13 H    0.927
    13   1 H    0.962 --    12 N    0.927
    14   6 C    3.970 --    15 C    1.353    16 C    1.347    12 N    1.122
    15   6 C    3.984 --    17 C    1.458    14 C    1.353    18 H    0.966
                            19 C    0.103
    16   6 C    3.982 --    19 C    1.465    14 C    1.347    20 H    0.968
                            17 C    0.104
    17   6 C    3.992 --    15 C    1.458    21 C    1.430    22 H    0.971
                            16 C    0.104
    18   1 H    0.999 --    15 C    0.966
    19   6 C    3.991 --    16 C    1.465    21 C    1.425    23 H    0.971
                            15 C    0.103
    20   1 H    0.999 --    16 C    0.968
    21   6 C    3.978 --    17 C    1.430    19 C    1.425    24 H    0.972
    22   1 H    0.999 --    17 C    0.971
    23   1 H    0.998 --    19 C    0.971
    24   1 H    0.999 --    21 C    0.972
 ---------------------------------------------------------------------------

Topologies differ in total number of bonds
Writing topology from bond orders to xtbtopo.mol

molecular dipole:
                 x           y           z       tot (Debye)
 q only:        0.000      -0.501       0.000
   full:        0.000      -0.580      -0.000       1.474
molecular quadrupole (traceless):
                xx          xy          yy          xz          yz          zz
 q only:       -3.182       0.000       4.428      -0.454       0.000      -1.246
  q+dip:       -0.958       0.001       8.017      -1.923       0.001      -7.059
   full:       -2.906       0.000       6.313      -0.921       0.000      -3.407

           -------------------------------------------------
          |                Geometry Summary                 |
           -------------------------------------------------

      molecular mass/u    :      169.2228823
   center of mass at/Å    :        0.0000019      -0.0075801      -0.0000262
  moments of inertia/u·Å² :        0.1978176E+03   0.1207049E+04   0.1352976E+04
rotational constants/cm⁻¹ :        0.8521806E-01   0.1396599E-01   0.1245967E-01

 * 25 selected distances

     #   Z          #   Z                                           value/Å
     1   6 C        2   6 C                                       1.3801092
     2   6 C        3   6 C                                       1.3979776 (max)
     3   6 C        4   6 C                                       1.3961277
     4   6 C        5   6 C                                       1.3817246
     1   6 C        6   6 C                                       1.3856860
     5   6 C        6   6 C                                       1.3849653
     1   6 C        7   1 H                                       1.0799755
     2   6 C        8   1 H                                       1.0804776
     4   6 C        9   1 H                                       1.0785602
     5   6 C       10   1 H                                       1.0801278
     6   6 C       11   1 H                                       1.0790915
     3   6 C       12   7 N                                       1.3822284
    12   7 N       13   1 H                                       1.0094534 (min)
    12   7 N       14   6 C                                       1.3822324
    14   6 C       15   6 C                                       1.3961279
    14   6 C       16   6 C                                       1.3979756
    15   6 C       17   6 C                                       1.3817242
    15   6 C       18   1 H                                       1.0785603
    16   6 C       19   6 C                                       1.3801105
    16   6 C       20   1 H                                       1.0804776
    17   6 C       21   6 C                                       1.3849661
    19   6 C       21   6 C                                       1.3856852
    17   6 C       22   1 H                                       1.0801276
    19   6 C       23   1 H                                       1.0799753
    21   6 C       24   1 H                                       1.0790915

 * 4 distinct bonds (by element types)

   Z      Z             #   av. dist./Å        max./Å        min./Å
   1 H    6 C          10     1.0796465     1.0804776     1.0785602
   6 C    6 C          12     1.3877650     1.3979776     1.3801092
   1 H    7 N           1     1.0094534     1.0094534     1.0094534
   6 C    7 N           2     1.3822304     1.3822324     1.3822284

           -------------------------------------------------
          |               Frequency Printout                |
           -------------------------------------------------
 projected vibrational frequencies (cm⁻¹)
eigval :       -0.00    -0.00    -0.00     0.00     0.00     0.00
eigval :       41.41    55.58   102.49   208.23   220.91   305.18
eigval :      320.76   371.10   390.71   425.48   467.67   475.59
eigval :      539.73   577.16   588.70   615.43   651.85   663.37
eigval :      748.21   757.88   807.54   860.65   867.10   875.14
eigval :      886.83   894.76   919.84   921.18   923.11   940.21
eigval :      981.12   993.10  1081.62  1085.93  1117.70  1129.97
eigval :     1179.44  1180.18  1192.07  1200.32  1224.49  1243.01
eigval :     1291.78  1293.96  1330.59  1338.13  1381.66  1443.35
eigval :     1451.94  1478.23  1493.20  1578.26  1579.79  1595.41
eigval :     1604.30  3066.32  3066.38  3071.12  3071.51  3077.21
eigval :     3077.37  3090.58  3091.59  3100.80  3103.18  3433.29
 reduced masses (amu)
   1: 11.33   2: 10.90   3: 11.22   4: 11.14   5: 10.58   6: 10.86   7: 10.88   8: 10.14
   9: 10.08  10: 10.52  11: 10.37  12: 10.92  13: 11.10  14:  8.47  15:  9.30  16:  3.35
  17:  9.60  18:  8.79  19: 11.48  20: 11.16  21: 11.20  22: 11.41  23: 10.14  24: 10.48
  25:  3.94  26:  4.05  27: 11.30  28:  3.44  29:  3.49  30:  3.76  31: 11.11  32:  3.62
  33:  3.89  34:  3.31  35:  2.88  36:  2.97  37: 10.76  38: 10.31  39:  6.42  40:  6.91
  41:  4.20  42:  4.02  43:  1.33  44:  1.29  45:  1.79  46:  2.20  47:  3.87  48:  8.73
  49:  3.72  50:  4.88  51: 11.87  52: 10.69  53:  8.57  54:  9.09  55:  8.32  56:  9.18
  57: 10.44  58: 11.32  59: 11.53  60: 11.48  61: 11.49  62:  1.77  63:  1.77  64:  1.77
  65:  1.77  66:  1.85  67:  1.85  68:  1.88  69:  1.89  70:  1.88  71:  1.87  72:  1.82
 IR intensities (km·mol⁻¹)
   1:  0.01   2:  0.16   3:  0.01   4:  0.04   5:  0.33   6:  0.05   7:  1.24   8:  0.03
   9:  0.04  10:  5.65  11:  0.05  12:  0.19  13:  1.18  14:  9.74  15:  0.13  16:215.26
  17:  0.45  18: 36.50  19:  3.10  20:  0.10  21:  0.40  22:  0.36  23:  3.47  24:  0.49
  25: 70.80  26:  1.98  27:  3.64  28:  0.77  29:  0.09  30:  1.62  31:  7.70  32:  0.44
  33:  1.07  34:  0.01  35:  0.49  36:  0.27  37:  0.05  38:  0.21  39:  1.49  40:  0.38
  41:  0.32  42:  0.12  43:  0.71  44:  0.52  45: 32.22  46: 12.45  47:  8.88  48: 32.35
  49:  0.46  50: 70.87  51:  9.45  52:104.78  53:427.13  54: 10.15  55: 34.60  56: 11.28
  57:989.33  58:  4.07  59:  7.02  60:442.61  61: 26.74  62: 39.10  63: 36.72  64:  6.63
  65: 34.94  66: 39.61  67:336.42  68:410.20  69:  0.98  70: 14.05  71: 60.82  72: 21.98
 Raman intensities (amu)
   1:  0.00   2:  0.00   3:  0.00   4:  0.00   5:  0.00   6:  0.00   7:  0.00   8:  0.00
   9:  0.00  10:  0.00  11:  0.00  12:  0.00  13:  0.00  14:  0.00  15:  0.00  16:  0.00
  17:  0.00  18:  0.00  19:  0.00  20:  0.00  21:  0.00  22:  0.00  23:  0.00  24:  0.00
  25:  0.00  26:  0.00  27:  0.00  28:  0.00  29:  0.00  30:  0.00  31:  0.00  32:  0.00
  33:  0.00  34:  0.00  35:  0.00  36:  0.00  37:  0.00  38:  0.00  39:  0.00  40:  0.00
  41:  0.00  42:  0.00  43:  0.00  44:  0.00  45:  0.00  46:  0.00  47:  0.00  48:  0.00
  49:  0.00  50:  0.00  51:  0.00  52:  0.00  53:  0.00  54:  0.00  55:  0.00  56:  0.00
  57:  0.00  58:  0.00  59:  0.00  60:  0.00  61:  0.00  62:  0.00  63:  0.00  64:  0.00
  65:  0.00  66:  0.00  67:  0.00  68:  0.00  69:  0.00  70:  0.00  71:  0.00  72:  0.00
 output can be read by thermo (or use thermo option).
 writing <g98.out> molden fake output.
 recommended (thermochemical) frequency scaling factor: 1.0
           -------------------------------------------------
          |             Thermodynamic Functions             |
           -------------------------------------------------

Molecule has the following symmetry elements: (C2) 
It seems to be the C2 point group
c2  symmetry found (for desy threshold:  0.10E+00) used in thermo

          ...................................................
          :                      SETUP                      :
          :.................................................:
          :  # frequencies                          66      :
          :  # imaginary freq.                       0      :
          :  linear?                             false      :
          :  only rotor calc.                    false      :
          :  symmetry                               c2      :
          :  rotational number                       2      :
          :  scaling factor                  1.0000000      :
          :  rotor cutoff                   50.0000000 cm⁻¹ :
          :  imag. cutoff                  -20.0000000 cm⁻¹ :
          :.................................................:

    mode    ω/cm⁻¹     T·S(HO)/kcal·mol⁻¹    T·S(FR)/kcal·mol⁻¹   T·S(vib)
   ------------------------------------------------------------------------
       1     41.41    -1.54760 ( 31.99%)    -1.11229 ( 68.01%)    -1.25153
       2     55.58    -1.37397 ( 60.42%)    -1.02512 ( 39.58%)    -1.23590
       3    102.49    -1.01561 ( 94.64%)    -0.84387 (  5.36%)    -1.00641
       4    208.23    -0.61393 ( 99.67%)    -0.63390 (  0.33%)    -0.61400
       5    220.91    -0.58188 ( 99.74%)    -0.61639 (  0.26%)    -0.58197
   ------------------------------------------------------------------------

   temp. (K)  partition function   enthalpy   heat capacity  entropy
                                   cal/mol     cal/K/mol   cal/K/mol   J/K/mol
 298.15  VIB   877.                 4888.553     36.999     28.378
         ROT  0.687E+06              888.752      2.981     29.688
         INT  0.602E+09             5777.306     39.980     58.067
         TR   0.213E+28             1481.254      4.968     41.267
         TOT                        7258.5597    44.9480    99.3339   415.6132

       T/K    H(0)-H(T)+PV         H(T)/Eh          T*S/Eh         G(T)/Eh
   ------------------------------------------------------------------------
    298.15    0.115673E-01    0.203258E+00    0.471968E-01    0.156062E+00
   ------------------------------------------------------------------------

         :::::::::::::::::::::::::::::::::::::::::::::::::::::
         ::                  THERMODYNAMIC                  ::
         :::::::::::::::::::::::::::::::::::::::::::::::::::::
         :: total free energy         -34.055295260364 Eh   ::
         ::.................................................::
         :: total energy              -34.211356942795 Eh   ::
         :: zero point energy           0.191691185498 Eh   ::
         :: G(RRHO) w/o ZPVE           -0.035629503067 Eh   ::
         :: G(RRHO) contrib.            0.156061682431 Eh   ::
         :::::::::::::::::::::::::::::::::::::::::::::::::::::

optimized geometry written to: xtbopt.xyz


           -------------------------------------------------
          | TOTAL ENERGY              -34.211356942795 Eh   |
          | TOTAL ENTHALPY            -34.008098506060 Eh   |
          | TOTAL FREE ENERGY         -34.055295260364 Eh   |
          | GRADIENT NORM               0.000217382677 Eh/α |
          | HOMO-LUMO GAP               3.418642955383 eV   |
           -------------------------------------------------

------------------------------------------------------------------------
 * finished run on 2021/11/15 at 09:36:22.265     
------------------------------------------------------------------------
 total:
 * wall-time:     0 d,  0 h,  0 min,  2.255 sec
 *  cpu-time:     0 d,  0 h,  0 min,  2.203 sec
 * ratio c/w:     0.977 speedup
 SCF:
 * wall-time:     0 d,  0 h,  0 min,  0.017 sec
 *  cpu-time:     0 d,  0 h,  0 min,  0.016 sec
 * ratio c/w:     0.895 speedup
 ANC optimizer:
 * wall-time:     0 d,  0 h,  0 min,  0.167 sec
 *  cpu-time:     0 d,  0 h,  0 min,  0.172 sec
 * ratio c/w:     1.029 speedup
 analytical hessian:
 * wall-time:     0 d,  0 h,  0 min,  2.023 sec
 *  cpu-time:     0 d,  0 h,  0 min,  1.984 sec
 * ratio c/w:     0.981 speedup

