 Entering Gaussian System
 *********************************************
 Gaussian 98:
 frequency output generated by the xtb code
 *********************************************
                         Standard orientation:
 --------------------------------------------------------------------
  Center     Atomic     Atomic              Coordinates (Angstroms)
  Number     Number      Type              X           Y           Z
 --------------------------------------------------------------------
    1          6             0       -3.619091   -0.658128    0.385385
    2          6             0       -2.350179   -1.200439    0.406885
    3          6             0       -1.247787   -0.454593   -0.020652
    4          6             0       -1.464748    0.834989   -0.509609
    5          6             0       -2.738217    1.371000   -0.521049
    6          6             0       -3.820554    0.636360   -0.066102
    7          1             0       -4.457355   -1.248484    0.724709
    8          1             0       -2.201041   -2.211310    0.758067
    9          1             0       -0.639884    1.405079   -0.906962
   10          1             0       -2.886745    2.371548   -0.899888
   11          1             0       -4.811715    1.062923   -0.075223
   12          7             0       -0.000026   -1.048915    0.000093
   13          1             0       -0.000053   -2.058369    0.000065
   14          6             0        1.247771   -0.454657    0.020708
   15          6             0        1.464848    0.834880    0.509733
   16          6             0        2.350073   -1.200522   -0.407020
   17          6             0        2.738340    1.370839    0.521042
   18          1             0        0.640056    1.404969    0.907236
   19          6             0        3.619011   -0.658264   -0.385649
   20          1             0        2.200847   -2.211363   -0.758254
   21          6             0        3.820586    0.636185    0.065896
   22          1             0        2.886963    2.371354    0.899932
   23          1             0        4.457206   -1.248630   -0.725126
   24          1             0        4.811764    1.062709    0.074912
 --------------------------------------------------------------------
     1 basis functions        1 primitive gaussians
     1 alpha electrons        1 beta electrons
 
 Harmonic frequencies (cm**-1), IR intensities (km*mol⁻¹),
 Raman scattering activities (A**4/amu), Raman depolarization ratios,
 reduced masses (AMU), force constants (mDyne/A) and normal coordinates:
                      1                      2                      3
                        a                      a                      a 
 Frequencies --    41.4054                55.5787               102.4908
 Red. masses --    10.8816                10.1448                10.0798
 Frc consts  --     0.0000                 0.0000                 0.0000
 IR Inten    --     1.2448                 0.0308                 0.0442
 Raman Activ --     0.0000                 0.0000                 0.0000
 Depolar     --     0.0000                 0.0000                 0.0000
 Atom AN      X      Y      Z        X      Y      Z        X      Y      Z
   1   6    -0.08  -0.05  -0.30     0.05   0.21   0.19    -0.00   0.05  -0.15
   2   6    -0.08  -0.03  -0.06    -0.02   0.07   0.19    -0.07  -0.11  -0.26
   3   6     0.00  -0.00   0.21     0.03  -0.13  -0.00     0.02  -0.13  -0.07
   4   6     0.09   0.02   0.24     0.15  -0.18  -0.21     0.15  -0.05   0.09
   5   6     0.08   0.00  -0.01     0.21  -0.04  -0.22     0.23   0.13   0.26
   6   6    -0.01  -0.04  -0.29     0.16   0.16  -0.02     0.15   0.19   0.17
   7   1    -0.04  -0.02  -0.15    -0.00   0.11   0.10    -0.02   0.02  -0.08
   8   1    -0.04  -0.01  -0.02    -0.03   0.03   0.10    -0.06  -0.06  -0.14
   9   1     0.05   0.02   0.13     0.06  -0.10  -0.09     0.05  -0.03   0.03
  10   1     0.04   0.01   0.00     0.09  -0.02  -0.11     0.10   0.06   0.13
  11   1    -0.00  -0.02  -0.14     0.06   0.08  -0.01     0.06   0.10   0.09
  12   7    -0.00   0.00   0.48    -0.00  -0.21   0.00    -0.00  -0.19  -0.00
  13   1    -0.00   0.00   0.10    -0.00  -0.06   0.00    -0.00  -0.05  -0.00
  14   6     0.00   0.00   0.21    -0.03  -0.13   0.00    -0.02  -0.13   0.07
  15   6     0.09  -0.02   0.23    -0.15  -0.18   0.21    -0.15  -0.05  -0.09
  16   6    -0.08   0.03  -0.06     0.02   0.07  -0.19     0.07  -0.11   0.26
  17   6     0.08  -0.00  -0.01    -0.21  -0.04   0.22    -0.23   0.13  -0.26
  18   1     0.05  -0.02   0.13    -0.06  -0.10   0.10    -0.05  -0.03  -0.03
  19   6    -0.08   0.05  -0.30    -0.05   0.21  -0.19     0.00   0.05   0.15
  20   1    -0.04   0.01  -0.02     0.03   0.03  -0.10     0.06  -0.06   0.14
  21   6    -0.01   0.04  -0.29    -0.16   0.16   0.02    -0.15   0.19  -0.17
  22   1     0.04  -0.01   0.00    -0.09  -0.02   0.11    -0.10   0.06  -0.13
  23   1    -0.04   0.02  -0.15    -0.00   0.11  -0.10     0.02   0.02   0.08
  24   1    -0.00   0.02  -0.14    -0.06   0.08   0.01    -0.06   0.10  -0.09
                      4                      5                      6
                        a                      a                      a 
 Frequencies --   208.2290               220.9090               305.1818
 Red. masses --    10.5211                10.3695                10.9214
 Frc consts  --     0.0000                 0.0000                 0.0000
 IR Inten    --     5.6507                 0.0505                 0.1949
 Raman Activ --     0.0000                 0.0000                 0.0000
 Depolar     --     0.0000                 0.0000                 0.0000
 Atom AN      X      Y      Z        X      Y      Z        X      Y      Z
   1   6     0.06  -0.01   0.02     0.03  -0.01   0.10     0.30  -0.16   0.01
   2   6     0.14   0.19   0.20     0.01  -0.05  -0.27     0.32  -0.02  -0.01
   3   6     0.07   0.20   0.06    -0.03   0.03  -0.27     0.13   0.15  -0.05
   4   6    -0.03   0.24   0.18    -0.13  -0.02  -0.36     0.20   0.15  -0.06
   5   6    -0.12   0.05  -0.00    -0.15  -0.04  -0.12     0.15   0.01  -0.00
   6   6    -0.09  -0.13  -0.23    -0.04   0.04   0.27     0.27  -0.16   0.01
   7   1     0.03  -0.03   0.01     0.03  -0.00   0.08     0.09  -0.06   0.00
   8   1     0.07   0.07   0.09     0.02  -0.02  -0.11     0.15   0.00  -0.00
   9   1    -0.02   0.11   0.08    -0.04  -0.00  -0.11     0.05   0.05  -0.02
  10   1    -0.06   0.01  -0.01    -0.07  -0.01  -0.04    -0.01  -0.00   0.01
  11   1    -0.05  -0.09  -0.15    -0.00   0.03   0.18     0.07  -0.07   0.01
  12   7    -0.01  -0.00  -0.41    -0.00   0.11  -0.00     0.00   0.10   0.00
  13   1    -0.06  -0.00  -0.10    -0.00   0.03  -0.00    -0.00   0.03   0.00
  14   6     0.06  -0.20   0.06     0.03   0.03   0.27    -0.13   0.15   0.05
  15   6    -0.03  -0.24   0.18     0.13  -0.03   0.36    -0.20   0.15   0.06
  16   6     0.14  -0.19   0.20    -0.01  -0.05   0.27    -0.32  -0.02   0.01
  17   6    -0.12  -0.05  -0.00     0.15  -0.04   0.12    -0.15   0.01   0.00
  18   1    -0.02  -0.11   0.08     0.04  -0.00   0.11    -0.05   0.05   0.02
  19   6     0.06   0.01   0.02    -0.02  -0.01  -0.10    -0.30  -0.16  -0.01
  20   1     0.07  -0.07   0.09    -0.02  -0.02   0.11    -0.15   0.00   0.00
  21   6    -0.09   0.13  -0.23     0.04   0.04  -0.27    -0.27  -0.16  -0.01
  22   1    -0.06  -0.01  -0.01     0.07  -0.01   0.04     0.01  -0.00  -0.01
  23   1     0.03   0.03   0.01    -0.03  -0.00  -0.08    -0.09  -0.06  -0.00
  24   1    -0.05   0.09  -0.15     0.00   0.03  -0.18    -0.07  -0.07  -0.01
                      7                      8                      9
                        a                      a                      a 
 Frequencies --   320.7582               371.1003               390.7119
 Red. masses --    11.1004                 8.4663                 9.2984
 Frc consts  --     0.0000                 0.0000                 0.0000
 IR Inten    --     1.1830                 9.7411                 0.1302
 Raman Activ --     0.0000                 0.0000                 0.0000
 Depolar     --     0.0000                 0.0000                 0.0000
 Atom AN      X      Y      Z        X      Y      Z        X      Y      Z
   1   6     0.09  -0.04  -0.02    -0.04  -0.11  -0.28    -0.06  -0.11  -0.25
   2   6     0.15   0.15  -0.18     0.05   0.11   0.25     0.03   0.11   0.27
   3   6     0.12   0.26  -0.04     0.01   0.02   0.01    -0.02   0.00  -0.05
   4   6    -0.07   0.21  -0.14    -0.04  -0.09  -0.27    -0.07  -0.12  -0.34
   5   6    -0.18   0.03  -0.04     0.03   0.11   0.27     0.01   0.10   0.25
   6   6    -0.08  -0.01   0.14    -0.00  -0.00   0.01    -0.02  -0.00   0.02
   7   1     0.06  -0.06  -0.00    -0.02  -0.07  -0.17    -0.03  -0.06  -0.15
   8   1     0.08   0.04  -0.07     0.03   0.06   0.15     0.03   0.07   0.17
   9   1    -0.06   0.11  -0.06    -0.03  -0.06  -0.17    -0.02  -0.06  -0.15
  10   1    -0.09   0.00  -0.02     0.02   0.07   0.17     0.01   0.07   0.17
  11   1    -0.03  -0.02   0.10    -0.00  -0.00   0.00    -0.00   0.00   0.02
  12   7     0.02  -0.00   0.52    -0.02   0.00  -0.05     0.00   0.02   0.00
  13   1    -0.08  -0.00   0.10    -0.01   0.00   0.26     0.00   0.00  -0.00
  14   6     0.12  -0.26  -0.04     0.01  -0.02   0.01     0.02   0.00   0.05
  15   6    -0.07  -0.21  -0.14    -0.04   0.09  -0.27     0.07  -0.12   0.34
  16   6     0.15  -0.15  -0.18     0.05  -0.11   0.25    -0.03   0.11  -0.27
  17   6    -0.18  -0.03  -0.04     0.03  -0.11   0.27    -0.01   0.10  -0.25
  18   1    -0.06  -0.11  -0.06    -0.03   0.06  -0.17     0.02  -0.06   0.15
  19   6     0.09   0.04  -0.02    -0.03   0.11  -0.28     0.06  -0.11   0.25
  20   1     0.08  -0.04  -0.07     0.03  -0.06   0.15    -0.03   0.07  -0.17
  21   6    -0.08   0.01   0.14    -0.00   0.00   0.01     0.02  -0.00  -0.02
  22   1    -0.09  -0.00  -0.02     0.02  -0.07   0.17    -0.01   0.07  -0.17
  23   1     0.06   0.06  -0.00    -0.02   0.07  -0.17     0.03  -0.06   0.15
  24   1    -0.03   0.02   0.10    -0.00   0.00   0.00     0.00   0.00  -0.02
                     10                     11                     12
                        a                      a                      a 
 Frequencies --   425.4816               467.6666               475.5858
 Red. masses --     3.3514                 9.5954                 8.7858
 Frc consts  --     0.0000                 0.0000                 0.0000
 IR Inten    --   215.2566                 0.4535                36.4954
 Raman Activ --     0.0000                 0.0000                 0.0000
 Depolar     --     0.0000                 0.0000                 0.0000
 Atom AN      X      Y      Z        X      Y      Z        X      Y      Z
   1   6     0.01   0.01   0.01     0.03   0.08   0.19    -0.02  -0.05  -0.19
   2   6    -0.01  -0.03  -0.11     0.02   0.07  -0.04     0.01  -0.00   0.04
   3   6     0.04   0.03   0.10     0.00  -0.12  -0.43     0.04   0.13   0.40
   4   6     0.01   0.03   0.09     0.01   0.05   0.01    -0.03  -0.03   0.01
   5   6    -0.01  -0.05  -0.09    -0.01   0.05   0.19    -0.03  -0.05  -0.18
   6   6    -0.00   0.02   0.06    -0.09  -0.10  -0.25     0.04   0.10   0.24
   7   1     0.00  -0.00  -0.00     0.04   0.05   0.19    -0.03  -0.06  -0.18
   8   1    -0.02  -0.03  -0.08     0.02   0.06   0.09    -0.02  -0.04  -0.10
   9   1     0.00   0.01   0.03    -0.00   0.08   0.09    -0.02  -0.07  -0.11
  10   1    -0.01  -0.03  -0.06     0.01   0.06   0.17    -0.02  -0.06  -0.17
  11   1     0.00   0.01   0.03    -0.03  -0.04  -0.10     0.01   0.03   0.08
  12   7    -0.05   0.00  -0.31    -0.00  -0.18   0.00     0.03  -0.00  -0.23
  13   1    -0.05   0.00   0.88     0.00  -0.05   0.00    -0.02  -0.00  -0.30
  14   6     0.04  -0.03   0.10    -0.00  -0.12   0.43     0.04  -0.13   0.40
  15   6     0.01  -0.03   0.09    -0.01   0.05  -0.01    -0.03   0.03   0.01
  16   6    -0.01   0.03  -0.11    -0.02   0.07   0.04     0.01   0.00   0.04
  17   6    -0.01   0.05  -0.09     0.01   0.05  -0.19    -0.03   0.05  -0.18
  18   1     0.00  -0.01   0.03     0.00   0.08  -0.09    -0.02   0.07  -0.11
  19   6     0.01  -0.01   0.01    -0.03   0.08  -0.19    -0.02   0.05  -0.19
  20   1    -0.02   0.03  -0.08    -0.02   0.06  -0.09    -0.02   0.04  -0.10
  21   6    -0.00  -0.02   0.06     0.09  -0.10   0.25     0.04  -0.10   0.24
  22   1    -0.01   0.03  -0.06    -0.01   0.06  -0.17    -0.02   0.06  -0.17
  23   1     0.00   0.00  -0.00    -0.04   0.05  -0.18    -0.03   0.06  -0.18
  24   1     0.00  -0.01   0.03     0.03  -0.04   0.10     0.01  -0.03   0.08
                     13                     14                     15
                        a                      a                      a 
 Frequencies --   539.7285               577.1645               588.7048
 Red. masses --    11.4789                11.1605                11.1956
 Frc consts  --     0.0000                 0.0000                 0.0000
 IR Inten    --     3.0964                 0.1047                 0.4018
 Raman Activ --     0.0000                 0.0000                 0.0000
 Depolar     --     0.0000                 0.0000                 0.0000
 Atom AN      X      Y      Z        X      Y      Z        X      Y      Z
   1   6    -0.06  -0.21   0.08    -0.21  -0.06  -0.02    -0.30  -0.06   0.05
   2   6    -0.07  -0.10   0.05    -0.03   0.36  -0.07    -0.12   0.29  -0.08
   3   6    -0.26   0.17  -0.01     0.17   0.10  -0.02     0.11   0.05  -0.04
   4   6     0.16   0.20  -0.09     0.24   0.09  -0.01     0.27   0.02  -0.04
   5   6     0.13   0.06  -0.06     0.05  -0.31   0.04     0.12  -0.34   0.10
   6   6     0.30  -0.16   0.04    -0.13  -0.03   0.13    -0.11  -0.07   0.06
   7   1    -0.05  -0.02   0.01    -0.02  -0.09  -0.03    -0.05  -0.06   0.02
   8   1     0.07  -0.02  -0.00     0.02   0.09  -0.05    -0.01   0.08  -0.03
   9   1     0.08   0.01  -0.02     0.01   0.08  -0.04     0.04   0.05  -0.03
  10   1    -0.05   0.01  -0.01    -0.01  -0.10  -0.02     0.01  -0.10   0.03
  11   1     0.09  -0.03   0.01    -0.01   0.06   0.00     0.01   0.08  -0.03
  12   7    -0.40   0.00   0.02    -0.00  -0.26  -0.00     0.07  -0.00  -0.06
  13   1    -0.15   0.00  -0.00    -0.00  -0.07   0.00     0.02  -0.00  -0.04
  14   6    -0.26  -0.17  -0.01    -0.17   0.10   0.02     0.11  -0.05  -0.04
  15   6     0.16  -0.20  -0.09    -0.24   0.09   0.01     0.27  -0.02  -0.04
  16   6    -0.07   0.10   0.05     0.03   0.36   0.07    -0.12  -0.29  -0.08
  17   6     0.13  -0.06  -0.06    -0.05  -0.31  -0.04     0.12   0.34   0.10
  18   1     0.08  -0.01  -0.02    -0.01   0.08   0.04     0.04  -0.05  -0.03
  19   6    -0.06   0.21   0.08     0.21  -0.06   0.02    -0.30   0.06   0.05
  20   1     0.07   0.02  -0.00    -0.02   0.09   0.05    -0.01  -0.08  -0.03
  21   6     0.30   0.16   0.04     0.13  -0.03  -0.13    -0.11   0.07   0.06
  22   1    -0.05  -0.01  -0.01     0.01  -0.10   0.02     0.01   0.10   0.03
  23   1    -0.05   0.02   0.01     0.02  -0.09   0.03    -0.05   0.06   0.02
  24   1     0.09   0.03   0.01     0.01   0.06  -0.00     0.01  -0.08  -0.03
                     16                     17                     18
                        a                      a                      a 
 Frequencies --   615.4328               651.8547               663.3687
 Red. masses --    11.4142                10.1418                10.4757
 Frc consts  --     0.0000                 0.0000                 0.0000
 IR Inten    --     0.3593                 3.4717                 0.4930
 Raman Activ --     0.0000                 0.0000                 0.0000
 Depolar     --     0.0000                 0.0000                 0.0000
 Atom AN      X      Y      Z        X      Y      Z        X      Y      Z
   1   6     0.28   0.12  -0.20     0.02   0.08   0.25     0.11   0.14   0.18
   2   6     0.23   0.07   0.05    -0.03  -0.06  -0.22     0.06   0.01  -0.22
   3   6     0.19  -0.09  -0.03     0.04   0.13   0.31     0.14   0.10   0.32
   4   6    -0.15  -0.05   0.12    -0.02  -0.08  -0.21    -0.04  -0.14  -0.21
   5   6    -0.17   0.03  -0.09     0.04   0.09   0.24     0.01   0.03   0.24
   6   6    -0.15   0.15   0.09    -0.03  -0.09  -0.22    -0.13  -0.04  -0.18
   7   1     0.11  -0.02  -0.07     0.00   0.00   0.02     0.05  -0.02  -0.01
   8   1     0.02   0.02   0.02    -0.02  -0.05  -0.16    -0.02  -0.04  -0.17
   9   1    -0.07   0.03   0.03    -0.02  -0.07  -0.16    -0.03  -0.05  -0.12
  10   1     0.00   0.00  -0.06     0.00   0.00   0.02     0.02  -0.01   0.00
  11   1    -0.07  -0.03   0.06    -0.02  -0.05  -0.15    -0.05  -0.05  -0.12
  12   7    -0.00  -0.42  -0.00    -0.00  -0.00  -0.05    -0.00  -0.09   0.00
  13   1    -0.00  -0.11   0.00    -0.03   0.00  -0.04     0.00  -0.02   0.00
  14   6    -0.19  -0.09   0.03     0.04  -0.13   0.31    -0.14   0.10  -0.32
  15   6     0.15  -0.05  -0.12    -0.02   0.08  -0.21     0.04  -0.14   0.21
  16   6    -0.23   0.07  -0.05    -0.03   0.06  -0.22    -0.06   0.01   0.22
  17   6     0.17   0.03   0.09     0.04  -0.09   0.24    -0.01   0.03  -0.24
  18   1     0.07   0.03  -0.03    -0.02   0.07  -0.16     0.03  -0.05   0.12
  19   6    -0.28   0.12   0.20     0.02  -0.08   0.25    -0.11   0.14  -0.18
  20   1    -0.02   0.02  -0.02    -0.02   0.05  -0.16     0.02  -0.04   0.17
  21   6     0.15   0.15  -0.09    -0.03   0.09  -0.22     0.13  -0.04   0.18
  22   1    -0.00   0.00   0.06     0.00  -0.00   0.02    -0.02  -0.01  -0.00
  23   1    -0.11  -0.02   0.07     0.00  -0.00   0.02    -0.05  -0.02   0.01
  24   1     0.07  -0.03  -0.06    -0.02   0.05  -0.15     0.05  -0.05   0.12
                     19                     20                     21
                        a                      a                      a 
 Frequencies --   748.2126               757.8776               807.5430
 Red. masses --     3.9383                 4.0463                11.3004
 Frc consts  --     0.0000                 0.0000                 0.0000
 IR Inten    --    70.8003                 1.9842                 3.6419
 Raman Activ --     0.0000                 0.0000                 0.0000
 Depolar     --     0.0000                 0.0000                 0.0000
 Atom AN      X      Y      Z        X      Y      Z        X      Y      Z
   1   6     0.03   0.03   0.08     0.03   0.01  -0.12    -0.15  -0.14   0.07
   2   6     0.02   0.04   0.13     0.02  -0.02  -0.14    -0.09  -0.01  -0.03
   3   6    -0.03  -0.08  -0.23     0.06   0.05   0.20     0.02   0.06   0.15
   4   6     0.02   0.06   0.13     0.01  -0.09  -0.03    -0.06   0.18  -0.10
   5   6     0.01   0.03   0.08     0.02  -0.13  -0.06    -0.09   0.29  -0.12
   6   6     0.01   0.04   0.11    -0.07  -0.01  -0.11     0.17  -0.11  -0.04
   7   1    -0.03  -0.09  -0.24     0.06   0.09   0.25    -0.07   0.02   0.05
   8   1    -0.03  -0.08  -0.22     0.03   0.10   0.24     0.01   0.01   0.02
   9   1    -0.04  -0.09  -0.22     0.02   0.07   0.16    -0.01   0.06   0.01
  10   1    -0.04  -0.09  -0.23     0.07   0.07   0.23    -0.11   0.10   0.04
  11   1    -0.05  -0.12  -0.32     0.04   0.14   0.32     0.05  -0.01   0.12
  12   7    -0.01  -0.00   0.10     0.00   0.11   0.00    -0.00  -0.57   0.00
  13   1     0.02  -0.00   0.05     0.00   0.03   0.00    -0.00  -0.15   0.00
  14   6    -0.03   0.08  -0.23    -0.06   0.05  -0.20    -0.02   0.06  -0.15
  15   6     0.02  -0.06   0.13    -0.01  -0.09   0.03     0.06   0.18   0.10
  16   6     0.02  -0.04   0.13    -0.02  -0.02   0.14     0.09  -0.01   0.03
  17   6     0.01  -0.03   0.08    -0.02  -0.13   0.06     0.09   0.29   0.12
  18   1    -0.04   0.09  -0.22    -0.02   0.07  -0.16     0.01   0.06  -0.01
  19   6     0.03  -0.03   0.08    -0.03   0.01   0.12     0.15  -0.14  -0.07
  20   1    -0.03   0.08  -0.22    -0.03   0.10  -0.24    -0.01   0.01  -0.02
  21   6     0.01  -0.04   0.11     0.07  -0.01   0.11    -0.17  -0.11   0.04
  22   1    -0.04   0.09  -0.23    -0.07   0.07  -0.23     0.11   0.10  -0.04
  23   1    -0.03   0.09  -0.24    -0.06   0.09  -0.25     0.07   0.02  -0.05
  24   1    -0.05   0.12  -0.32    -0.04   0.14  -0.32    -0.05  -0.01  -0.12
                     22                     23                     24
                        a                      a                      a 
 Frequencies --   860.6472               867.0950               875.1362
 Red. masses --     3.4362                 3.4919                 3.7566
 Frc consts  --     0.0000                 0.0000                 0.0000
 IR Inten    --     0.7735                 0.0901                 1.6230
 Raman Activ --     0.0000                 0.0000                 0.0000
 Depolar     --     0.0000                 0.0000                 0.0000
 Atom AN      X      Y      Z        X      Y      Z        X      Y      Z
   1   6    -0.01   0.02   0.12    -0.02  -0.03  -0.07    -0.02  -0.02  -0.02
   2   6     0.01   0.07   0.20    -0.03  -0.09  -0.24     0.02   0.06   0.14
   3   6     0.02  -0.00  -0.01     0.00   0.01   0.04     0.01  -0.02  -0.05
   4   6    -0.04  -0.06  -0.17     0.00   0.03   0.03     0.02   0.08   0.17
   5   6    -0.02  -0.01  -0.12     0.01   0.06   0.11    -0.01   0.02  -0.02
   6   6     0.02  -0.01  -0.02     0.02   0.05   0.14    -0.03  -0.09  -0.22
   7   1    -0.05  -0.07  -0.21     0.01   0.04   0.11     0.01   0.03   0.10
   8   1    -0.06  -0.14  -0.37     0.07   0.17   0.44    -0.04  -0.10  -0.27
   9   1     0.05   0.15   0.32    -0.01  -0.04  -0.09    -0.05  -0.14  -0.31
  10   1     0.03   0.09   0.22    -0.04  -0.10  -0.25     0.00   0.03   0.06
  11   1     0.01   0.01   0.02    -0.04  -0.09  -0.22     0.06   0.14   0.37
  12   7     0.04   0.00   0.00     0.00  -0.04  -0.00     0.02  -0.00   0.03
  13   1     0.03   0.00   0.00     0.00  -0.01   0.00     0.02  -0.00   0.01
  14   6     0.02   0.00  -0.01    -0.00   0.01  -0.04     0.01   0.02  -0.05
  15   6    -0.04   0.06  -0.17    -0.00   0.03  -0.03     0.02  -0.08   0.17
  16   6     0.01  -0.07   0.20     0.03  -0.09   0.24     0.02  -0.06   0.14
  17   6    -0.02   0.01  -0.12    -0.01   0.06  -0.11    -0.01  -0.02  -0.02
  18   1     0.05  -0.15   0.32     0.01  -0.04   0.09    -0.05   0.14  -0.31
  19   6    -0.01  -0.02   0.12     0.02  -0.03   0.07    -0.02   0.02  -0.02
  20   1    -0.06   0.14  -0.36    -0.07   0.17  -0.44    -0.04   0.10  -0.27
  21   6     0.02   0.01  -0.02    -0.02   0.05  -0.14    -0.03   0.09  -0.22
  22   1     0.03  -0.09   0.22     0.04  -0.10   0.26     0.00  -0.03   0.06
  23   1    -0.05   0.07  -0.21    -0.01   0.04  -0.11     0.01  -0.03   0.10
  24   1     0.01  -0.01   0.02     0.04  -0.09   0.22     0.06  -0.14   0.37
                     25                     26                     27
                        a                      a                      a 
 Frequencies --   886.8309               894.7605               919.8380
 Red. masses --    11.1082                 3.6209                 3.8903
 Frc consts  --     0.0000                 0.0000                 0.0000
 IR Inten    --     7.7050                 0.4352                 1.0655
 Raman Activ --     0.0000                 0.0000                 0.0000
 Depolar     --     0.0000                 0.0000                 0.0000
 Atom AN      X      Y      Z        X      Y      Z        X      Y      Z
   1   6    -0.30  -0.17   0.10     0.01   0.04   0.10    -0.03  -0.09  -0.23
   2   6    -0.11   0.04  -0.04    -0.02  -0.02  -0.07     0.02   0.05   0.13
   3   6     0.17  -0.07   0.01     0.01   0.02   0.06     0.00   0.00   0.01
   4   6    -0.10   0.06   0.01    -0.03  -0.06  -0.13    -0.02  -0.05  -0.12
   5   6    -0.06   0.31  -0.10    -0.02  -0.07  -0.16     0.03   0.06   0.16
   6   6     0.20  -0.08   0.02     0.06   0.07   0.18     0.01   0.01   0.04
   7   1    -0.12   0.01   0.03    -0.04  -0.06  -0.20     0.06   0.15   0.42
   8   1    -0.02   0.03   0.05     0.01   0.04   0.10    -0.04  -0.09  -0.23
   9   1    -0.03   0.01  -0.02     0.02   0.17   0.30     0.02   0.07   0.16
  10   1    -0.09   0.07  -0.05     0.05   0.11   0.28    -0.03  -0.10  -0.24
  11   1     0.05  -0.02  -0.03    -0.04  -0.11  -0.31    -0.01  -0.04  -0.09
  12   7     0.44  -0.00  -0.01     0.00  -0.01   0.00    -0.01   0.00   0.00
  13   1     0.20  -0.00   0.04     0.00  -0.00   0.00    -0.00  -0.00   0.01
  14   6     0.17   0.07   0.01    -0.01   0.02  -0.06     0.00  -0.00   0.01
  15   6    -0.10  -0.06   0.01     0.03  -0.06   0.13    -0.02   0.05  -0.12
  16   6    -0.11  -0.04  -0.04     0.02  -0.02   0.07     0.02  -0.05   0.13
  17   6    -0.06  -0.31  -0.10     0.02  -0.07   0.16     0.03  -0.06   0.16
  18   1    -0.03  -0.01  -0.02    -0.02   0.17  -0.30     0.02  -0.07   0.16
  19   6    -0.30   0.17   0.10    -0.01   0.04  -0.10    -0.03   0.09  -0.23
  20   1    -0.02  -0.03   0.05    -0.01   0.04  -0.10    -0.04   0.09  -0.23
  21   6     0.20   0.08   0.02    -0.06   0.07  -0.18     0.01  -0.01   0.04
  22   1    -0.09  -0.07  -0.05    -0.05   0.11  -0.28    -0.03   0.10  -0.24
  23   1    -0.12  -0.01   0.03     0.04  -0.06   0.20     0.06  -0.15   0.41
  24   1     0.05   0.02  -0.03     0.04  -0.11   0.31    -0.01   0.04  -0.09
                     28                     29                     30
                        a                      a                      a 
 Frequencies --   921.1844               923.1052               940.2104
 Red. masses --     3.3137                 2.8781                 2.9742
 Frc consts  --     0.0000                 0.0000                 0.0000
 IR Inten    --     0.0097                 0.4853                 0.2722
 Raman Activ --     0.0000                 0.0000                 0.0000
 Depolar     --     0.0000                 0.0000                 0.0000
 Atom AN      X      Y      Z        X      Y      Z        X      Y      Z
   1   6     0.04   0.09   0.23    -0.01  -0.03  -0.08    -0.01  -0.01  -0.02
   2   6    -0.01  -0.05  -0.10     0.00   0.01  -0.00     0.00   0.03   0.07
   3   6    -0.01  -0.01  -0.05     0.01   0.02   0.05     0.01  -0.01  -0.02
   4   6     0.02   0.03   0.07     0.01   0.03   0.07    -0.05  -0.10  -0.17
   5   6    -0.00  -0.01  -0.01    -0.03  -0.07  -0.19     0.05   0.05   0.18
   6   6    -0.03  -0.04  -0.13     0.02   0.05   0.14     0.04  -0.02  -0.03
   7   1    -0.07  -0.17  -0.46     0.04   0.08   0.23    -0.02   0.00  -0.03
   8   1     0.04   0.08   0.24    -0.01  -0.03  -0.09    -0.01  -0.02  -0.04
   9   1    -0.00  -0.02  -0.05    -0.03  -0.09  -0.19     0.03   0.24   0.43
  10   1    -0.01  -0.02  -0.05     0.06   0.16   0.41    -0.04  -0.15  -0.36
  11   1     0.04   0.10   0.26    -0.05  -0.12  -0.30     0.03   0.05   0.10
  12   7    -0.00   0.00  -0.00    -0.00  -0.00   0.00    -0.00   0.02   0.00
  13   1     0.00   0.00   0.00    -0.01   0.00  -0.01    -0.00   0.00  -0.00
  14   6     0.01  -0.01   0.05     0.01  -0.02   0.05    -0.01  -0.01   0.02
  15   6    -0.02   0.03  -0.07     0.01  -0.03   0.07     0.05  -0.10   0.17
  16   6     0.01  -0.05   0.10     0.00  -0.01  -0.00    -0.00   0.03  -0.07
  17   6     0.00  -0.01   0.01    -0.03   0.07  -0.19    -0.05   0.05  -0.18
  18   1     0.00  -0.02   0.05    -0.03   0.09  -0.19    -0.03   0.24  -0.43
  19   6    -0.04   0.09  -0.23    -0.01   0.03  -0.08     0.01  -0.01   0.02
  20   1    -0.04   0.08  -0.24    -0.01   0.03  -0.09     0.01  -0.02   0.04
  21   6     0.03  -0.04   0.13     0.02  -0.05   0.14    -0.04  -0.02   0.03
  22   1     0.01  -0.02   0.05     0.06  -0.16   0.41     0.04  -0.15   0.36
  23   1     0.07  -0.17   0.46     0.04  -0.08   0.23     0.02   0.00   0.03
  24   1    -0.04   0.10  -0.26    -0.05   0.12  -0.30    -0.03   0.05  -0.10
                     31                     32                     33
                        a                      a                      a 
 Frequencies --   981.1208               993.1026              1081.6204
 Red. masses --    10.7590                10.3141                 6.4246
 Frc consts  --     0.0000                 0.0000                 0.0000
 IR Inten    --     0.0474                 0.2078                 1.4888
 Raman Activ --     0.0000                 0.0000                 0.0000
 Depolar     --     0.0000                 0.0000                 0.0000
 Atom AN      X      Y      Z        X      Y      Z        X      Y      Z
   1   6     0.08   0.09  -0.05    -0.03   0.04  -0.02     0.10   0.18  -0.08
   2   6    -0.03  -0.36   0.14    -0.04  -0.37   0.14    -0.09   0.03   0.00
   3   6    -0.08   0.04   0.03     0.02  -0.00   0.02     0.03  -0.00   0.00
   4   6     0.26   0.28  -0.17     0.24   0.29  -0.16    -0.12   0.04   0.01
   5   6    -0.02  -0.10   0.05    -0.04  -0.02   0.02    -0.05  -0.23   0.10
   6   6    -0.24   0.10   0.00    -0.22   0.09  -0.00     0.30  -0.12  -0.01
   7   1    -0.02   0.07  -0.01    -0.06   0.08  -0.01    -0.11   0.23  -0.07
   8   1    -0.06  -0.11   0.04    -0.08  -0.11   0.05    -0.21  -0.00   0.03
   9   1     0.04   0.14  -0.03     0.02   0.14  -0.07    -0.20   0.20  -0.06
  10   1    -0.08  -0.03   0.02    -0.10  -0.01   0.02    -0.19  -0.08   0.06
  11   1    -0.07   0.02   0.00    -0.06   0.03  -0.00     0.10  -0.01  -0.01
  12   7     0.00  -0.13   0.00     0.21   0.00  -0.00     0.02   0.00   0.00
  13   1     0.00  -0.03   0.00     0.15   0.00   0.01    -0.02   0.00  -0.01
  14   6     0.08   0.04  -0.03     0.02   0.00   0.02     0.03   0.00   0.00
  15   6    -0.26   0.28   0.17     0.24  -0.29  -0.16    -0.12  -0.04   0.01
  16   6     0.03  -0.36  -0.14    -0.04   0.37   0.14    -0.09  -0.03   0.00
  17   6     0.02  -0.10  -0.05    -0.04   0.02   0.02    -0.05   0.23   0.10
  18   1    -0.04   0.14   0.03     0.02  -0.14  -0.07    -0.20  -0.20  -0.06
  19   6    -0.08   0.09   0.05    -0.03  -0.04  -0.02     0.10  -0.18  -0.08
  20   1     0.06  -0.11  -0.04    -0.08   0.11   0.05    -0.21   0.00   0.03
  21   6     0.24   0.10  -0.00    -0.22  -0.09  -0.00     0.30   0.12  -0.01
  22   1     0.08  -0.03  -0.02    -0.10   0.01   0.02    -0.19   0.08   0.06
  23   1     0.02   0.07   0.01    -0.06  -0.08  -0.01    -0.11  -0.23  -0.07
  24   1     0.07   0.02  -0.00    -0.06  -0.03  -0.00     0.10   0.01  -0.01
                     34                     35                     36
                        a                      a                      a 
 Frequencies --  1085.9286              1117.6994              1129.9695
 Red. masses --     6.9075                 4.1957                 4.0165
 Frc consts  --     0.0000                 0.0000                 0.0000
 IR Inten    --     0.3817                 0.3179                 0.1214
 Raman Activ --     0.0000                 0.0000                 0.0000
 Depolar     --     0.0000                 0.0000                 0.0000
 Atom AN      X      Y      Z        X      Y      Z        X      Y      Z
   1   6    -0.14  -0.21   0.10    -0.12  -0.10   0.05    -0.10  -0.06   0.04
   2   6     0.10  -0.07   0.02     0.10  -0.16   0.04     0.10  -0.15   0.04
   3   6     0.02  -0.00  -0.00     0.05   0.10  -0.05     0.08   0.08  -0.04
   4   6     0.10  -0.04  -0.02    -0.16  -0.04   0.05    -0.17  -0.01   0.04
   5   6     0.06   0.22  -0.09     0.04  -0.09   0.03    -0.00  -0.12   0.04
   6   6    -0.29   0.14   0.00     0.02   0.15  -0.06     0.06   0.12  -0.06
   7   1     0.08  -0.22   0.06    -0.12   0.08  -0.01    -0.16   0.15  -0.02
   8   1     0.24  -0.01  -0.04     0.29  -0.03  -0.04     0.28  -0.02  -0.03
   9   1     0.14  -0.11   0.08    -0.21   0.18  -0.05    -0.23   0.17  -0.11
  10   1     0.24   0.08  -0.08     0.22  -0.01  -0.03     0.13  -0.02   0.00
  11   1    -0.08   0.05  -0.01     0.11   0.28  -0.12     0.13   0.30  -0.13
  12   7    -0.00   0.02  -0.00    -0.02   0.00   0.01    -0.00  -0.06   0.00
  13   1     0.00   0.00  -0.00    -0.09   0.00   0.01    -0.00  -0.01   0.00
  14   6    -0.02  -0.00   0.00     0.05  -0.10  -0.05    -0.08   0.08   0.04
  15   6    -0.10  -0.04   0.02    -0.16   0.04   0.05     0.17  -0.01  -0.04
  16   6    -0.10  -0.07  -0.02     0.10   0.16   0.04    -0.10  -0.15  -0.04
  17   6    -0.06   0.22   0.09     0.04   0.09   0.03     0.00  -0.12  -0.04
  18   1    -0.14  -0.11  -0.08    -0.21  -0.18  -0.05     0.23   0.17   0.11
  19   6     0.14  -0.21  -0.10    -0.12   0.10   0.05     0.10  -0.06  -0.04
  20   1    -0.24  -0.01   0.04     0.29   0.03  -0.04    -0.28  -0.02   0.03
  21   6     0.29   0.14  -0.00     0.02  -0.15  -0.06    -0.06   0.12   0.06
  22   1    -0.24   0.08   0.08     0.22   0.01  -0.03    -0.13  -0.02  -0.00
  23   1    -0.08  -0.22  -0.06    -0.12  -0.08  -0.01     0.16   0.15   0.02
  24   1     0.08   0.05   0.01     0.11  -0.28  -0.12    -0.13   0.30   0.13
                     37                     38                     39
                        a                      a                      a 
 Frequencies --  1179.4386              1180.1753              1192.0688
 Red. masses --     1.3331                 1.2880                 1.7898
 Frc consts  --     0.0000                 0.0000                 0.0000
 IR Inten    --     0.7110                 0.5245                32.2186
 Raman Activ --     0.0000                 0.0000                 0.0000
 Depolar     --     0.0000                 0.0000                 0.0000
 Atom AN      X      Y      Z        X      Y      Z        X      Y      Z
   1   6     0.02  -0.01   0.00    -0.03   0.03  -0.01    -0.03   0.09  -0.03
   2   6     0.05  -0.02  -0.00    -0.04   0.01  -0.00     0.08   0.02  -0.02
   3   6    -0.03  -0.03   0.02     0.02   0.05  -0.02    -0.07   0.01   0.01
   4   6    -0.05   0.03  -0.00     0.05  -0.03   0.01     0.02  -0.04   0.01
   5   6    -0.03  -0.01   0.01     0.02  -0.01  -0.00    -0.07  -0.06   0.03
   6   6     0.02   0.05  -0.02    -0.02  -0.04   0.02    -0.01   0.00  -0.00
   7   1     0.19  -0.23   0.06    -0.23   0.28  -0.07    -0.20   0.27  -0.07
   8   1    -0.10  -0.01   0.02     0.16   0.02  -0.03     0.38   0.04  -0.07
   9   1     0.08  -0.10   0.03    -0.05   0.06  -0.03     0.19  -0.23   0.07
  10   1    -0.33  -0.03   0.06     0.29   0.02  -0.05    -0.29  -0.04   0.06
  11   1     0.19   0.43  -0.19    -0.18  -0.41   0.18    -0.00   0.00  -0.00
  12   7     0.01   0.00   0.00    -0.00   0.00  -0.00     0.05   0.00   0.00
  13   1     0.01   0.00   0.00    -0.00   0.00  -0.00     0.16  -0.00   0.03
  14   6    -0.03   0.03   0.02    -0.02   0.05   0.02    -0.07  -0.01   0.01
  15   6    -0.05  -0.03  -0.00    -0.05  -0.03  -0.01     0.02   0.04   0.01
  16   6     0.05   0.02  -0.00     0.04   0.01   0.00     0.08  -0.02  -0.02
  17   6    -0.03   0.01   0.01    -0.02  -0.01   0.00    -0.07   0.06   0.03
  18   1     0.08   0.10   0.03     0.05   0.06   0.03     0.19   0.23   0.07
  19   6     0.02   0.01   0.00     0.02   0.03   0.01    -0.03  -0.09  -0.03
  20   1    -0.10   0.01   0.02    -0.16   0.02   0.03     0.38  -0.04  -0.07
  21   6     0.02  -0.05  -0.02     0.02  -0.04  -0.02    -0.01  -0.00  -0.00
  22   1    -0.33   0.03   0.06    -0.29   0.02   0.05    -0.29   0.04   0.06
  23   1     0.19   0.23   0.06     0.23   0.28   0.07    -0.20  -0.27  -0.07
  24   1     0.19  -0.43  -0.19     0.18  -0.41  -0.18    -0.00  -0.00  -0.00
                     40                     41                     42
                        a                      a                      a 
 Frequencies --  1200.3216              1224.4911              1243.0123
 Red. masses --     2.2002                 3.8737                 8.7327
 Frc consts  --     0.0000                 0.0000                 0.0000
 IR Inten    --    12.4466                 8.8771                32.3472
 Raman Activ --     0.0000                 0.0000                 0.0000
 Depolar     --     0.0000                 0.0000                 0.0000
 Atom AN      X      Y      Z        X      Y      Z        X      Y      Z
   1   6     0.01   0.09  -0.04    -0.03  -0.09   0.04    -0.14  -0.08   0.05
   2   6     0.06   0.04  -0.02     0.02  -0.09   0.03     0.13  -0.06   0.01
   3   6    -0.15   0.02   0.01     0.24   0.14  -0.12     0.45  -0.12  -0.03
   4   6     0.03  -0.05   0.01     0.02  -0.08   0.03     0.12  -0.08   0.01
   5   6    -0.06  -0.05   0.03    -0.08   0.01   0.01    -0.06   0.13  -0.04
   6   6    -0.02   0.01  -0.00    -0.03   0.03  -0.01    -0.06   0.02   0.00
   7   1    -0.12   0.18  -0.05    -0.15   0.14  -0.03    -0.20   0.17  -0.04
   8   1     0.38   0.04  -0.07    -0.22  -0.05   0.05    -0.16  -0.04   0.04
   9   1     0.23  -0.26   0.13     0.15  -0.20   0.06     0.05  -0.02   0.01
  10   1    -0.32  -0.04   0.06    -0.01   0.00  -0.00    -0.22   0.02   0.02
  11   1     0.01   0.03  -0.01     0.00   0.04  -0.01    -0.02   0.02  -0.01
  12   7     0.00  -0.08   0.00     0.03  -0.00   0.01     0.00   0.24  -0.00
  13   1     0.00  -0.02   0.00    -0.64   0.00  -0.03     0.00   0.06  -0.00
  14   6     0.15   0.02  -0.01     0.24  -0.14  -0.12    -0.45  -0.12   0.03
  15   6    -0.03  -0.05  -0.01     0.02   0.08   0.03    -0.12  -0.08  -0.01
  16   6    -0.06   0.04   0.02     0.02   0.09   0.03    -0.13  -0.06  -0.01
  17   6     0.06  -0.05  -0.03    -0.08  -0.01   0.01     0.06   0.13   0.04
  18   1    -0.23  -0.26  -0.13     0.15   0.20   0.06    -0.05  -0.02  -0.01
  19   6    -0.01   0.09   0.04    -0.03   0.09   0.04     0.14  -0.08  -0.05
  20   1    -0.38   0.04   0.07    -0.22   0.05   0.05     0.16  -0.04  -0.04
  21   6     0.02   0.01   0.00    -0.03  -0.03  -0.01     0.06   0.02  -0.00
  22   1     0.32  -0.04  -0.06    -0.01  -0.00  -0.00     0.22   0.02  -0.02
  23   1     0.12   0.18   0.05    -0.15  -0.14  -0.03     0.20   0.17   0.04
  24   1    -0.01   0.03   0.01     0.00  -0.04  -0.01     0.02   0.02   0.01
                     43                     44                     45
                        a                      a                      a 
 Frequencies --  1291.7775              1293.9627              1330.5929
 Red. masses --     3.7211                 4.8819                11.8716
 Frc consts  --     0.0000                 0.0000                 0.0000
 IR Inten    --     0.4627                70.8728                 9.4549
 Raman Activ --     0.0000                 0.0000                 0.0000
 Depolar     --     0.0000                 0.0000                 0.0000
 Atom AN      X      Y      Z        X      Y      Z        X      Y      Z
   1   6    -0.07   0.07  -0.02    -0.03  -0.02   0.01     0.16  -0.20   0.05
   2   6    -0.09  -0.00   0.01    -0.12  -0.03   0.03    -0.28  -0.03   0.05
   3   6     0.01  -0.20   0.06     0.14  -0.11   0.01     0.09   0.29  -0.11
   4   6     0.11  -0.10   0.03     0.17  -0.19   0.05     0.16  -0.21   0.06
   5   6     0.09   0.06  -0.04     0.00   0.08  -0.03    -0.26  -0.04   0.06
   6   6     0.04   0.11  -0.05     0.03   0.18  -0.07     0.12   0.26  -0.12
   7   1     0.14  -0.17   0.04     0.08  -0.12   0.03     0.03  -0.04   0.01
   8   1     0.27   0.02  -0.05     0.21   0.01  -0.03    -0.01  -0.00   0.00
   9   1    -0.23   0.26  -0.11    -0.16   0.20  -0.06     0.02  -0.03   0.01
  10   1    -0.29  -0.01   0.05    -0.33  -0.00   0.05    -0.03  -0.01   0.00
  11   1    -0.07  -0.16   0.07    -0.07  -0.14   0.07    -0.01  -0.04   0.02
  12   7     0.00   0.12   0.00    -0.13   0.00  -0.01    -0.00  -0.05   0.00
  13   1     0.00   0.03   0.00    -0.32   0.00  -0.03    -0.00  -0.01  -0.00
  14   6    -0.01  -0.20  -0.06     0.14   0.11   0.01    -0.09   0.29   0.11
  15   6    -0.11  -0.10  -0.03     0.17   0.19   0.05    -0.16  -0.21  -0.06
  16   6     0.09  -0.00  -0.01    -0.12   0.03   0.03     0.28  -0.03  -0.05
  17   6    -0.09   0.06   0.04     0.00  -0.08  -0.03     0.26  -0.04  -0.06
  18   1     0.23   0.26   0.11    -0.16  -0.20  -0.06    -0.02  -0.03  -0.01
  19   6     0.07   0.07   0.02    -0.03   0.02   0.01    -0.16  -0.20  -0.05
  20   1    -0.27   0.02   0.05     0.21  -0.01  -0.03     0.01  -0.00  -0.00
  21   6    -0.04   0.11   0.05     0.03  -0.18  -0.07    -0.12   0.26   0.12
  22   1     0.29  -0.01  -0.05    -0.33   0.00   0.05     0.03  -0.01  -0.00
  23   1    -0.14  -0.17  -0.04     0.08   0.12   0.03    -0.03  -0.04  -0.01
  24   1     0.07  -0.16  -0.07    -0.07   0.14   0.07     0.01  -0.04  -0.02
                     46                     47                     48
                        a                      a                      a 
 Frequencies --  1338.1278              1381.6573              1443.3462
 Red. masses --    10.6858                 8.5682                 9.0901
 Frc consts  --     0.0000                 0.0000                 0.0000
 IR Inten    --   104.7824               427.1281                10.1528
 Raman Activ --     0.0000                 0.0000                 0.0000
 Depolar     --     0.0000                 0.0000                 0.0000
 Atom AN      X      Y      Z        X      Y      Z        X      Y      Z
   1   6     0.18  -0.15   0.03     0.11  -0.21   0.06     0.25  -0.11   0.00
   2   6    -0.31  -0.02   0.04     0.09   0.10  -0.05    -0.12   0.17  -0.04
   3   6    -0.02   0.30  -0.09     0.15  -0.09   0.04    -0.14  -0.21   0.09
   4   6     0.10  -0.13   0.04     0.17  -0.11   0.02     0.25  -0.06  -0.01
   5   6    -0.26  -0.08   0.08    -0.11   0.13  -0.04    -0.19   0.15  -0.03
   6   6     0.14   0.21  -0.10    -0.10  -0.00   0.02    -0.11  -0.17   0.08
   7   1     0.06  -0.05   0.02    -0.16   0.18  -0.04    -0.07   0.15  -0.04
   8   1     0.01   0.01  -0.00    -0.15   0.01   0.02     0.05   0.06  -0.03
   9   1     0.05  -0.06   0.02    -0.05   0.09  -0.03    -0.06   0.14  -0.06
  10   1     0.07  -0.02  -0.01    -0.03   0.04  -0.01     0.09   0.06  -0.04
  11   1     0.01  -0.02   0.01     0.03   0.13  -0.05     0.08   0.21  -0.09
  12   7     0.14  -0.00  -0.01    -0.50   0.00  -0.01    -0.00   0.08   0.00
  13   1     0.29  -0.00   0.03     0.35  -0.00  -0.03     0.00   0.02  -0.00
  14   6    -0.02  -0.30  -0.09     0.15   0.09   0.04     0.14  -0.21  -0.09
  15   6     0.10   0.13   0.04     0.17   0.11   0.02    -0.25  -0.06   0.01
  16   6    -0.31   0.02   0.04     0.09  -0.10  -0.05     0.12   0.17   0.04
  17   6    -0.26   0.08   0.08    -0.11  -0.13  -0.04     0.19   0.15   0.03
  18   1     0.05   0.06   0.02    -0.05  -0.09  -0.03     0.06   0.14   0.06
  19   6     0.18   0.15   0.03     0.11   0.21   0.06    -0.25  -0.11  -0.00
  20   1     0.01  -0.01  -0.00    -0.15  -0.01   0.02    -0.05   0.06   0.03
  21   6     0.14  -0.21  -0.10    -0.10   0.00   0.02     0.11  -0.17  -0.08
  22   1     0.07   0.02  -0.01    -0.03  -0.04  -0.01    -0.09   0.06   0.04
  23   1     0.06   0.05   0.02    -0.16  -0.18  -0.04     0.07   0.15   0.04
  24   1     0.01   0.02   0.01     0.03  -0.13  -0.05    -0.08   0.21   0.09
                     49                     50                     51
                        a                      a                      a 
 Frequencies --  1451.9428              1478.2348              1493.2046
 Red. masses --     8.3192                 9.1773                10.4370
 Frc consts  --     0.0000                 0.0000                 0.0000
 IR Inten    --    34.6045                11.2759               989.3306
 Raman Activ --     0.0000                 0.0000                 0.0000
 Depolar     --     0.0000                 0.0000                 0.0000
 Atom AN      X      Y      Z        X      Y      Z        X      Y      Z
   1   6     0.20   0.03  -0.04    -0.06   0.22  -0.07     0.12  -0.18   0.05
   2   6    -0.22   0.10  -0.00    -0.21  -0.08   0.06     0.11   0.11  -0.05
   3   6    -0.07  -0.22   0.08     0.28  -0.16   0.02    -0.38   0.12  -0.00
   4   6     0.17   0.05  -0.05     0.00   0.17  -0.07     0.07  -0.17   0.06
   5   6    -0.23   0.09   0.00    -0.26  -0.05   0.06     0.16   0.07  -0.05
   6   6    -0.03  -0.21   0.08     0.15  -0.12   0.02    -0.14   0.04   0.01
   7   1     0.02   0.07  -0.03     0.12  -0.10   0.02    -0.09   0.11  -0.02
   8   1     0.16   0.05  -0.04     0.20  -0.00  -0.02    -0.12   0.02   0.00
   9   1     0.02   0.06  -0.02     0.13  -0.09   0.03    -0.12   0.11  -0.03
  10   1     0.16   0.04  -0.05     0.19   0.01  -0.03    -0.12   0.01   0.01
  11   1     0.10   0.18  -0.08     0.07   0.01  -0.02    -0.03   0.04  -0.01
  12   7     0.18   0.00  -0.02     0.00   0.11  -0.00     0.42  -0.00  -0.00
  13   1    -0.32   0.00  -0.01    -0.00   0.02  -0.00    -0.11   0.00   0.04
  14   6    -0.07   0.22   0.08    -0.28  -0.16  -0.02    -0.38  -0.12  -0.00
  15   6     0.17  -0.05  -0.05    -0.00   0.17   0.07     0.07   0.17   0.06
  16   6    -0.22  -0.10  -0.00     0.21  -0.08  -0.06     0.11  -0.11  -0.05
  17   6    -0.23  -0.09   0.00     0.26  -0.05  -0.06     0.16  -0.07  -0.05
  18   1     0.02  -0.06  -0.02    -0.13  -0.09  -0.03    -0.12  -0.11  -0.03
  19   6     0.20  -0.03  -0.04     0.06   0.22   0.07     0.12   0.18   0.05
  20   1     0.16  -0.05  -0.04    -0.20  -0.00   0.02    -0.12  -0.02   0.00
  21   6    -0.03   0.21   0.08    -0.15  -0.12  -0.02    -0.14  -0.04   0.01
  22   1     0.16  -0.04  -0.05    -0.19   0.01   0.03    -0.12  -0.01   0.01
  23   1     0.02  -0.07  -0.03    -0.12  -0.10  -0.02    -0.09  -0.11  -0.02
  24   1     0.10  -0.18  -0.08    -0.07   0.01   0.02    -0.03  -0.04  -0.01
                     52                     53                     54
                        a                      a                      a 
 Frequencies --  1578.2625              1579.7898              1595.4105
 Red. masses --    11.3227                11.5285                11.4750
 Frc consts  --     0.0000                 0.0000                 0.0000
 IR Inten    --     4.0732                 7.0174               442.6141
 Raman Activ --     0.0000                 0.0000                 0.0000
 Depolar     --     0.0000                 0.0000                 0.0000
 Atom AN      X      Y      Z        X      Y      Z        X      Y      Z
   1   6    -0.00  -0.21   0.08    -0.01  -0.21   0.08     0.26  -0.21   0.04
   2   6     0.16   0.12  -0.06     0.17   0.12  -0.07    -0.32   0.06   0.02
   3   6    -0.11  -0.30   0.12    -0.11  -0.31   0.12     0.15  -0.06   0.01
   4   6    -0.03   0.21  -0.08    -0.02   0.21  -0.08    -0.25   0.18  -0.03
   5   6    -0.16  -0.15   0.08    -0.17  -0.15   0.09     0.33  -0.04  -0.04
   6   6     0.14   0.33  -0.15     0.15   0.32  -0.15    -0.14   0.05   0.00
   7   1    -0.05   0.01   0.00    -0.05   0.01   0.00    -0.03   0.07  -0.02
   8   1    -0.05   0.02  -0.00    -0.05   0.02  -0.00     0.06   0.03  -0.02
   9   1     0.06  -0.03   0.00     0.06  -0.02   0.00     0.02  -0.06   0.02
  10   1     0.05  -0.03   0.00     0.05  -0.03   0.00    -0.07  -0.02   0.02
  11   1    -0.03  -0.08   0.04    -0.03  -0.08   0.04    -0.04   0.02  -0.00
  12   7     0.05   0.00  -0.01    -0.00   0.06   0.00    -0.02  -0.00   0.00
  13   1    -0.13   0.00  -0.01     0.00   0.01  -0.00    -0.00  -0.00  -0.01
  14   6    -0.11   0.30   0.12     0.11  -0.31  -0.13     0.15   0.06   0.01
  15   6    -0.03  -0.21  -0.08     0.02   0.21   0.08    -0.25  -0.18  -0.03
  16   6     0.16  -0.12  -0.06    -0.17   0.12   0.07    -0.32  -0.06   0.02
  17   6    -0.16   0.15   0.08     0.17  -0.15  -0.09     0.33   0.04  -0.04
  18   1     0.06   0.03   0.00    -0.06  -0.02  -0.00     0.02   0.06   0.02
  19   6    -0.00   0.21   0.08     0.01  -0.21  -0.08     0.26   0.21   0.04
  20   1    -0.05  -0.02  -0.00     0.05   0.02   0.00     0.06  -0.03  -0.02
  21   6     0.14  -0.33  -0.15    -0.15   0.33   0.15    -0.14  -0.05   0.00
  22   1     0.05   0.03   0.00    -0.05  -0.03  -0.00    -0.07   0.02   0.02
  23   1    -0.05  -0.01   0.00     0.05   0.01  -0.00    -0.03  -0.07  -0.02
  24   1    -0.03   0.08   0.04     0.03  -0.08  -0.04    -0.04  -0.02  -0.00
                     55                     56                     57
                        a                      a                      a 
 Frequencies --  1604.3037              3066.3222              3066.3752
 Red. masses --    11.4914                 1.7686                 1.7677
 Frc consts  --     0.0000                 0.0000                 0.0000
 IR Inten    --    26.7446                39.1046                36.7198
 Raman Activ --     0.0000                 0.0000                 0.0000
 Depolar     --     0.0000                 0.0000                 0.0000
 Atom AN      X      Y      Z        X      Y      Z        X      Y      Z
   1   6    -0.26   0.20  -0.04    -0.08  -0.06   0.03     0.08   0.06  -0.03
   2   6     0.32  -0.06  -0.03    -0.02   0.14  -0.05     0.02  -0.14   0.05
   3   6    -0.18   0.09  -0.01    -0.00   0.01  -0.00     0.00  -0.00   0.00
   4   6     0.25  -0.19   0.04     0.01   0.00  -0.00    -0.01  -0.00   0.00
   5   6    -0.31   0.04   0.03     0.00  -0.00   0.00    -0.00   0.00  -0.00
   6   6     0.13  -0.06   0.00     0.02  -0.01   0.00    -0.02   0.01  -0.00
   7   1     0.03  -0.07   0.02     0.31   0.22  -0.12    -0.30  -0.21   0.12
   8   1    -0.07  -0.03   0.02     0.08  -0.53   0.18    -0.07   0.51  -0.18
   9   1    -0.03   0.06  -0.02    -0.02  -0.01   0.01     0.02   0.01  -0.01
  10   1     0.07   0.02  -0.02    -0.00   0.01  -0.00     0.00   0.00  -0.00
  11   1     0.03  -0.02   0.00    -0.07   0.03  -0.00     0.07  -0.03   0.00
  12   7     0.00  -0.04  -0.00    -0.00  -0.00   0.00    -0.00   0.00   0.00
  13   1    -0.00  -0.00   0.00     0.00   0.00  -0.00     0.00  -0.00  -0.00
  14   6     0.18   0.09   0.01    -0.00  -0.00  -0.00    -0.00  -0.00  -0.00
  15   6    -0.25  -0.19  -0.04     0.01  -0.00  -0.00     0.01  -0.00  -0.00
  16   6    -0.32  -0.06   0.03    -0.02  -0.14  -0.05    -0.02  -0.14  -0.05
  17   6     0.31   0.04  -0.03     0.00   0.00   0.00     0.00   0.00   0.00
  18   1     0.03   0.06   0.02    -0.02   0.01   0.01    -0.02   0.01   0.01
  19   6     0.26   0.20   0.04    -0.08   0.06   0.03    -0.08   0.06   0.03
  20   1     0.07  -0.03  -0.02     0.07   0.51   0.18     0.07   0.52   0.18
  21   6    -0.13  -0.06  -0.00     0.02   0.01   0.00     0.02   0.01   0.00
  22   1    -0.07   0.02   0.02    -0.00  -0.01  -0.00    -0.00   0.00   0.00
  23   1    -0.03  -0.07  -0.02     0.30  -0.21  -0.12     0.31  -0.22  -0.13
  24   1    -0.03  -0.02  -0.00    -0.07  -0.03  -0.00    -0.08  -0.03  -0.00
                     58                     59                     60
                        a                      a                      a 
 Frequencies --  3071.1196              3071.5096              3077.2064
 Red. masses --     1.7668                 1.7690                 1.8479
 Frc consts  --     0.0000                 0.0000                 0.0000
 IR Inten    --     6.6258                34.9376                39.6078
 Raman Activ --     0.0000                 0.0000                 0.0000
 Depolar     --     0.0000                 0.0000                 0.0000
 Atom AN      X      Y      Z        X      Y      Z        X      Y      Z
   1   6     0.01   0.01  -0.00     0.01   0.01  -0.00     0.10   0.07  -0.04
   2   6    -0.00   0.02  -0.01    -0.00   0.02  -0.01    -0.01   0.10  -0.03
   3   6     0.00   0.00  -0.00     0.00   0.00  -0.00    -0.01   0.00   0.00
   4   6     0.03   0.02  -0.01     0.02   0.01  -0.01    -0.01  -0.01   0.01
   5   6     0.02  -0.15   0.06     0.02  -0.15   0.06    -0.01   0.06  -0.02
   6   6    -0.07   0.03  -0.00    -0.08   0.03  -0.00    -0.08   0.03  -0.00
   7   1    -0.04  -0.03   0.02    -0.04  -0.03   0.01    -0.35  -0.24   0.14
   8   1     0.01  -0.06   0.02     0.01  -0.07   0.02     0.05  -0.34   0.12
   9   1    -0.10  -0.07   0.05    -0.09  -0.06   0.04     0.04   0.03  -0.02
  10   1    -0.08   0.55  -0.21    -0.08   0.54  -0.21     0.03  -0.20   0.08
  11   1     0.28  -0.12   0.00     0.29  -0.12   0.00     0.27  -0.12   0.00
  12   7     0.00  -0.00   0.00    -0.00  -0.00  -0.00     0.00  -0.00   0.00
  13   1     0.00  -0.00  -0.00    -0.00  -0.00   0.00     0.00  -0.00  -0.00
  14   6     0.00  -0.00  -0.00    -0.00   0.00   0.00    -0.01  -0.00   0.00
  15   6     0.03  -0.02  -0.01    -0.02   0.01   0.01    -0.01   0.01   0.01
  16   6    -0.00  -0.02  -0.01     0.00   0.02   0.01    -0.01  -0.10  -0.03
  17   6     0.02   0.15   0.06    -0.02  -0.15  -0.06    -0.01  -0.06  -0.02
  18   1    -0.10   0.07   0.05     0.09  -0.06  -0.04     0.04  -0.03  -0.02
  19   6     0.01  -0.01  -0.00    -0.01   0.01   0.00     0.10  -0.07  -0.04
  20   1     0.01   0.06   0.02    -0.01  -0.07  -0.02     0.05   0.33   0.12
  21   6    -0.07  -0.03  -0.00     0.08   0.03   0.00    -0.07  -0.03  -0.00
  22   1    -0.08  -0.55  -0.21     0.08   0.55   0.21     0.03   0.20   0.07
  23   1    -0.04   0.03   0.02     0.04  -0.03  -0.01    -0.34   0.24   0.14
  24   1     0.27   0.12   0.00    -0.29  -0.12  -0.00     0.27   0.11   0.00
                     61                     62                     63
                        a                      a                      a 
 Frequencies --  3077.3665              3090.5778              3091.5948
 Red. masses --     1.8494                 1.8806                 1.8878
 Frc consts  --     0.0000                 0.0000                 0.0000
 IR Inten    --   336.4223               410.2034                 0.9841
 Raman Activ --     0.0000                 0.0000                 0.0000
 Depolar     --     0.0000                 0.0000                 0.0000
 Atom AN      X      Y      Z        X      Y      Z        X      Y      Z
   1   6     0.10   0.07  -0.04    -0.07  -0.05   0.03    -0.07  -0.05   0.03
   2   6    -0.01   0.10  -0.03     0.01  -0.04   0.01     0.01  -0.04   0.01
   3   6    -0.00   0.00   0.00     0.00  -0.00   0.00    -0.00   0.00   0.00
   4   6    -0.01  -0.01   0.00    -0.07  -0.05   0.03    -0.05  -0.04   0.03
   5   6    -0.01   0.06  -0.02    -0.00   0.04  -0.01    -0.01   0.05  -0.02
   6   6    -0.07   0.03  -0.00    -0.13   0.06  -0.00    -0.13   0.06  -0.00
   7   1    -0.34  -0.24   0.14     0.24   0.17  -0.10     0.25   0.17  -0.10
   8   1     0.05  -0.33   0.12    -0.02   0.12  -0.04    -0.02   0.13  -0.05
   9   1     0.03   0.02  -0.01     0.24   0.16  -0.11     0.19   0.13  -0.09
  10   1     0.03  -0.21   0.08     0.02  -0.12   0.05     0.02  -0.16   0.06
  11   1     0.27  -0.11   0.00     0.44  -0.19   0.00     0.46  -0.20   0.00
  12   7    -0.00  -0.00  -0.00    -0.00   0.00  -0.00     0.00  -0.00   0.00
  13   1    -0.00   0.00   0.00    -0.00   0.00   0.00     0.00   0.00  -0.00
  14   6     0.00   0.00  -0.00     0.00   0.00   0.00     0.00   0.00  -0.00
  15   6     0.01  -0.01  -0.00    -0.07   0.05   0.03     0.05  -0.04  -0.03
  16   6     0.01   0.10   0.03     0.01   0.04   0.01    -0.01  -0.04  -0.01
  17   6     0.01   0.06   0.02    -0.00  -0.04  -0.01     0.01   0.05   0.02
  18   1    -0.03   0.02   0.01     0.24  -0.16  -0.11    -0.19   0.13   0.09
  19   6    -0.10   0.07   0.04    -0.07   0.05   0.03     0.07  -0.05  -0.03
  20   1    -0.05  -0.34  -0.12    -0.02  -0.12  -0.04     0.02   0.13   0.05
  21   6     0.07   0.03   0.00    -0.13  -0.06  -0.00     0.13   0.06   0.00
  22   1    -0.03  -0.21  -0.08     0.02   0.12   0.05    -0.02  -0.16  -0.06
  23   1     0.35  -0.24  -0.14     0.24  -0.17  -0.10    -0.25   0.17   0.10
  24   1    -0.27  -0.12  -0.00     0.44   0.19   0.00    -0.46  -0.20  -0.00
                     64                     65                     66
                        a                      a                      a 
 Frequencies --  3100.8032              3103.1802              3433.2925
 Red. masses --     1.8774                 1.8658                 1.8210
 Frc consts  --     0.0000                 0.0000                 0.0000
 IR Inten    --    14.0494                60.8213                21.9818
 Raman Activ --     0.0000                 0.0000                 0.0000
 Depolar     --     0.0000                 0.0000                 0.0000
 Atom AN      X      Y      Z        X      Y      Z        X      Y      Z
   1   6     0.03   0.02  -0.01    -0.02  -0.02   0.01     0.00  -0.00   0.00
   2   6    -0.00   0.02  -0.01     0.00  -0.02   0.01    -0.00   0.00   0.00
   3   6    -0.01   0.00   0.00     0.01  -0.00  -0.00     0.00  -0.01   0.00
   4   6    -0.13  -0.09   0.06     0.14   0.09  -0.07    -0.00   0.00  -0.00
   5   6     0.01  -0.07   0.02    -0.01   0.06  -0.02     0.00  -0.00   0.00
   6   6     0.06  -0.02  -0.00    -0.05   0.02   0.00    -0.00   0.00  -0.00
   7   1    -0.09  -0.06   0.04     0.07   0.05  -0.03    -0.00  -0.00   0.00
   8   1     0.01  -0.07   0.02    -0.01   0.07  -0.02     0.00   0.00  -0.00
   9   1     0.45   0.31  -0.21    -0.48  -0.33   0.22     0.00   0.00  -0.00
  10   1    -0.03   0.21  -0.08     0.03  -0.17   0.07     0.00   0.00  -0.00
  11   1    -0.20   0.09  -0.00     0.15  -0.06   0.00    -0.00   0.00  -0.00
  12   7     0.00  -0.00  -0.00    -0.00  -0.00   0.00    -0.00  -0.25  -0.00
  13   1     0.00   0.00   0.00     0.00   0.00  -0.00     0.00   0.97   0.00
  14   6    -0.01  -0.00   0.00    -0.01  -0.00   0.00    -0.00  -0.01  -0.00
  15   6    -0.13   0.09   0.06    -0.14   0.09   0.07     0.00   0.00   0.00
  16   6    -0.00  -0.02  -0.01    -0.00  -0.02  -0.01     0.00   0.00  -0.00
  17   6     0.01   0.07   0.02     0.01   0.06   0.02    -0.00  -0.00  -0.00
  18   1     0.45  -0.31  -0.21     0.48  -0.33  -0.22    -0.00   0.00   0.00
  19   6     0.03  -0.02  -0.01     0.02  -0.02  -0.01    -0.00  -0.00  -0.00
  20   1     0.01   0.07   0.02     0.01   0.07   0.02    -0.00   0.00   0.00
  21   6     0.06   0.02  -0.00     0.05   0.02  -0.00     0.00   0.00   0.00
  22   1    -0.03  -0.21  -0.08    -0.03  -0.17  -0.07    -0.00   0.00   0.00
  23   1    -0.09   0.06   0.04    -0.07   0.05   0.03     0.00  -0.00  -0.00
  24   1    -0.20  -0.09  -0.00    -0.15  -0.06  -0.00     0.00   0.00   0.00
